10   
10   

1    
  0.0028870291364734  -0.0000000000113029   0.0095741873161722
  -0.0109639800    0.0000003300   -0.0696844500
  -0.0001887200    0.0000000500    0.0097887000
   0.0000288500    0.0000000700    0.0148788300
   0.0036807800    0.0000005000    0.0050637900
   0.0002044100   -0.0000000800    0.0112747700
   0.0024794500   -0.0000000500    0.0111473300
   0.0007502700   -0.0000003400    0.0115296500
  -0.0000604600   -0.0000000400   -0.0087812800
   0.0000459700   -0.0000000500   -0.0173385400
   0.0040234400   -0.0000003900    0.0321211900

1    
 -0.0028870291364734   0.0000000000113029  -0.0095741873161722
   0.0102581700    0.0000002600    0.0808505700
   0.0002511300    0.0000000700   -0.0188063100
   0.0000421900    0.0000000400   -0.0060928700
  -0.0037119000    0.0000003900   -0.0140162200
  -0.0000993700   -0.0000000500   -0.0118751200
  -0.0023336100   -0.0000000300   -0.0109498000
  -0.0006094300   -0.0000003200   -0.0253640100
   0.0001259000   -0.0000000100    0.0215880100
   0.0000248400    0.0000000000    0.0043782700
  -0.0039479100   -0.0000003500   -0.0197125300

2    
  0.0028870291364734  -0.0000000000113029   0.0095741873161722
  -0.0002521400    0.0000003200    0.0188106500
  -0.0102585400    0.0000000500   -0.0808485300
   0.0037105100    0.0000001200    0.0140147700
  -0.0000434500    0.0000004600    0.0060883200
   0.0001002800   -0.0000000700    0.0114913100
   0.0023339800   -0.0000000600    0.0113343600
  -0.0001250800   -0.0000003800   -0.0214070300
   0.0006103000   -0.0000000300    0.0255490000
   0.0039481500   -0.0000000400    0.0195268500
  -0.0000240100   -0.0000003700   -0.0045597100

2    
 -0.0028870291364734   0.0000000000113029  -0.0095741873161722
   0.0001880300    0.0000002900   -0.0097874300
   0.0109624600    0.0000000300    0.0696898900
  -0.0036821500    0.0000000900   -0.0050687200
  -0.0000304400    0.0000004500   -0.0148792500
  -0.0002035000   -0.0000000800   -0.0116590500
  -0.0024788900   -0.0000000300   -0.0107623700
   0.0000614200   -0.0000003200    0.0089646600
  -0.0007494000   -0.0000000200   -0.0113470400
  -0.0040222200   -0.0000000400   -0.0323044000
  -0.0000453100   -0.0000003600    0.0171537200

5    
  0.0028870291364734  -0.0000000000113029   0.0095741873161722
  -0.0028185300    0.0000002000    0.0123070700
  -0.0028146100    0.0000000400    0.0033039100
  -0.0005525900    0.0000001500    0.0118985400
  -0.0004614700    0.0000003400    0.0030092700
   0.0132391300    0.0000002000   -0.3076052200
  -0.0028499700   -0.0000000500    0.0036773500
   0.0010033300   -0.0000003900    0.1512325300
   0.0011322300   -0.0000000700    0.1554699000
  -0.0029387300   -0.0000000600   -0.0229982300
  -0.0029387900   -0.0000003700   -0.0102951300

5    
 -0.0028870291364734   0.0000000000113029  -0.0095741873161722
   0.0028152000    0.0000002500   -0.0033119500
   0.0028191600    0.0000000200   -0.0123181600
   0.0004617000    0.0000000300   -0.0030235500
   0.0005527700    0.0000004500   -0.0119150700
  -0.0132531800    0.0000002400    0.3073296700
   0.0028521800   -0.0000000500   -0.0033051600
  -0.0011295500   -0.0000003500   -0.1553080300
  -0.0010007100   -0.0000001100   -0.1510502300
   0.0029412700   -0.0000000500    0.0101001500
   0.0029411500   -0.0000004300    0.0228023400

7    
  0.0028870291364734  -0.0000000000113029   0.0095741873161722
   0.0004132000    0.0000002800    0.0239783500
  -0.0003602300    0.0000000300   -0.0191415100
  -0.0002555100    0.0000001100   -0.0058617400
   0.0037697100    0.0000003400    0.0219960600
   0.0044807300   -0.0000000400    0.1488279700
  -0.0002315700   -0.0000000200   -0.0120604000
  -0.0055235100   -0.0000003300   -0.2160956200
  -0.0021229700   -0.0000000100    0.0248521300
  -0.0003179400   -0.0000000100    0.0137984900
   0.0001481000   -0.0000003500    0.0197062700

7    
 -0.0028870291364734   0.0000000000113029  -0.0095741873161722
  -0.0005422500    0.0000003100   -0.0134110600
   0.0002494700    0.0000000800    0.0107507900
   0.0001458400    0.0000000000    0.0153414700
  -0.0037652700    0.0000005100   -0.0305171300
  -0.0042758200   -0.0000001100   -0.1600914700
   0.0001258300   -0.0000000500    0.0130000800
   0.0060520300   -0.0000003100    0.2096930300
   0.0020489000   -0.0000000200   -0.0117161400
   0.0002077300   -0.0000000400   -0.0262234500
  -0.0002464500   -0.0000003700   -0.0068261200

8    
  0.0028870291364734  -0.0000000000113029   0.0095741873161722
  -0.0002502300    0.0000003100   -0.0107469300
   0.0005409500    0.0000000700    0.0134147700
   0.0037641200    0.0000001000    0.0305153500
  -0.0001476200    0.0000004100   -0.0153444700
   0.0042773000   -0.0000000800    0.1596935600
  -0.0001254600   -0.0000000400   -0.0126148200
  -0.0020479600   -0.0000003200    0.0118994300
  -0.0060513400   -0.0000000600   -0.2094985300
   0.0002474600   -0.0000000200    0.0066402600
  -0.0002072300   -0.0000003700    0.0260413700

8    
 -0.0028870291364734   0.0000000000113029  -0.0095741873161722
   0.0003593700    0.0000002900    0.0191430100
  -0.0004135900    0.0000000300   -0.0239750000
  -0.0037710700    0.0000000400   -0.0220007000
   0.0002544600    0.0000005000    0.0058596900
  -0.0044806800   -0.0000000600   -0.1491971200
   0.0002320000   -0.0000000400    0.0124447100
   0.0021237300   -0.0000003500   -0.0246700000
   0.0055246200    0.0000000000    0.2162658500
  -0.0001477000   -0.0000000400   -0.0198884000
   0.0003188500   -0.0000003700   -0.0139820300
