5    
30   

1    
  0.0099999999838227   0.0000005602409401   0.0000000983618576
  -0.0339913600    0.0000086000    0.0000755100
   0.0017075000   -0.0002937100    0.0083940000
   0.0015641500    0.0002928000   -0.0085996100
   0.0152432900   -0.0002664100   -0.0198917000
   0.0154764200    0.0002587200    0.0200218000

1    
 -0.0099999999838227  -0.0000005602409401  -0.0000000983618576
   0.0339919400   -0.0000080000    0.0000911500
  -0.0015674100   -0.0002924400    0.0083945700
  -0.0017100600    0.0002941800   -0.0085996000
  -0.0154735900   -0.0002594800   -0.0198998200
  -0.0152408800    0.0002657400    0.0200137000

1    
 -0.0049998438118167   0.0086603442110272   0.0000000629687480
   0.0170051200   -0.0294377800    0.0000892200
  -0.0007220100    0.0011737500    0.0083936800
  -0.0009199400    0.0016643800   -0.0085999500
  -0.0076631000    0.0132709800   -0.0198983500
  -0.0077000700    0.0133286600    0.0200153900

1    
  0.0049998438118167  -0.0086603442110272  -0.0000000629687480
  -0.0170043100    0.0294386400    0.0000776500
   0.0009171800   -0.0016643500    0.0083941600
   0.0007188200   -0.0011731100   -0.0085990800
   0.0077025000   -0.0133292300   -0.0198930300
   0.0076658100   -0.0132719400    0.0200203000

1    
  0.0000000984811204   0.0000001278673047   0.0099999999986976
  -0.0000063600    0.0000032000   -0.0658570700
   0.0000691900   -0.0002618300    0.0320660100
  -0.0000735800    0.0002607000    0.0151647800
  -0.0001108800   -0.0001077900   -0.0105891900
   0.0001216200    0.0001057200    0.0292154800

1    
 -0.0000000984811204  -0.0000001278673047  -0.0099999999986976
   0.0000070400   -0.0000024600    0.0660252500
   0.0000706000   -0.0002603100   -0.0153783600
  -0.0000721100    0.0002622300   -0.0322680200
  -0.0001190500   -0.0001064900   -0.0290910400
   0.0001135200    0.0001070200    0.0107121700

2    
  0.0099999999838227   0.0000005602409401   0.0000000983618576
   0.0292276900    0.0029703100   -0.0031420300
  -0.1583097100   -0.0109393200    0.0221795300
   0.0320500800    0.0032031500   -0.0121146200
   0.0262071800    0.0028072200   -0.0241357300
   0.0708247600    0.0019586500    0.0172128500

2    
 -0.0099999999838227  -0.0000005602409401  -0.0000000983618576
  -0.0291398100    0.0034157300   -0.0030305500
   0.1581974300   -0.0127730900    0.0217318800
  -0.0321147200    0.0036648000   -0.0119877700
  -0.0263525900    0.0032586400   -0.0240284200
  -0.0705903000    0.0024339100    0.0173148700

2    
 -0.0049998438118167   0.0086603442110272   0.0000000629687480
  -0.0175940200    0.0235142000   -0.0030323900
   0.0902244900   -0.1309283800    0.0217366400
  -0.0191058000    0.0262973100   -0.0119915400
  -0.0162153300    0.0209162200   -0.0240323800
  -0.0373093400    0.0602006400    0.0173196600

2    
  0.0049998438118167  -0.0086603442110272  -0.0000000629687480
   0.0120136500   -0.0268433300   -0.0031876700
  -0.0697713900    0.1424293400    0.0223709200
   0.0134138500   -0.0290762900   -0.0121580100
   0.0104944400   -0.0244052600   -0.0241819800
   0.0338494600   -0.0621044700    0.0171567300

2    
  0.0000000984811204   0.0000001278673047   0.0099999999986976
   0.0000031500   -0.0000031300    0.0665158800
   0.0000802700   -0.0002712400   -0.2019503600
  -0.0000704300    0.0002568200    0.0281697000
  -0.0001102200   -0.0001089400    0.0351282300
   0.0000972300    0.0001264800    0.0721365500

2    
 -0.0000000984811204  -0.0000001278673047  -0.0099999999986976
   0.0000194200   -0.0000459900   -0.0463970900
   0.0000268200   -0.0000786500    0.1511624600
  -0.0000597300    0.0002222800   -0.0262282900
  -0.0001009200   -0.0001560500   -0.0652037600
   0.0001144100    0.0000584100   -0.0133333300

3    
  0.0099999999838227   0.0000005602409401   0.0000000983618576
   0.0291423500   -0.0034096800    0.0031938200
   0.0321135500   -0.0036592000    0.0117775600
  -0.1582063000    0.0127527300   -0.0219206000
   0.0705937400   -0.0024297500   -0.0171961400
   0.0263566600   -0.0032541000    0.0241453600

3    
 -0.0099999999838227  -0.0000005602409401  -0.0000000983618576
  -0.0292296600   -0.0029641100    0.0033044300
  -0.0320557000   -0.0031971700    0.0119058300
   0.1583159300    0.0109184800   -0.0223673100
  -0.0708234600   -0.0019548200   -0.0170956800
  -0.0262071100   -0.0028023800    0.0242527200

3    
 -0.0049998438118167   0.0086603442110272   0.0000000629687480
  -0.0120191800    0.0268434000    0.0033503300
  -0.0134230900    0.0290760000    0.0119480400
   0.0697926700   -0.1424256200   -0.0225582200
  -0.0338522200    0.0621024100   -0.0170389200
  -0.0104981800    0.0244038200    0.0242987800

3    
  0.0049998438118167  -0.0086603442110272  -0.0000000629687480
   0.0175910500   -0.0235179500    0.0031950500
   0.0190990700   -0.0263013300    0.0117826300
  -0.0902123200    0.1309447600   -0.0219249900
   0.0373081900   -0.0602041300   -0.0172019800
   0.0162140100   -0.0209213500    0.0241492800

3    
  0.0000000984811204   0.0000001278673047   0.0099999999986976
  -0.0000188800    0.0000468400    0.0465029700
   0.0000566200   -0.0002217600    0.0259605100
  -0.0000292500    0.0000786500   -0.1511320400
  -0.0001118800   -0.0000590600    0.0133947000
   0.0001033900    0.0001553200    0.0652738700

3    
 -0.0000000984811204  -0.0000001278673047  -0.0099999999986976
  -0.0000024700    0.0000038300   -0.0663839600
   0.0000673200   -0.0002564100   -0.0284098500
  -0.0000827600    0.0002716800    0.2018889000
  -0.0000947000   -0.0001272300   -0.0720526400
   0.0001126100    0.0001081300   -0.0350424500

4    
  0.0099999999838227   0.0000005602409401   0.0000000983618576
   0.0155746000    0.0002643400    0.0001638700
  -0.0009427500   -0.0001159600    0.0086660300
   0.0431635900   -0.0001219900   -0.0080670700
  -0.0615236900   -0.0002733000   -0.0212139900
   0.0037282500    0.0002469100    0.0204511600

4    
 -0.0099999999838227  -0.0000005602409401  -0.0000000983618576
  -0.0155871300    0.0002702100    0.0001429300
   0.0010685000   -0.0001183800    0.0086409900
  -0.0432982800   -0.0001122500   -0.0080269300
   0.0613232900   -0.0002881600   -0.0211911800
  -0.0035063800    0.0002485900    0.0204341900

4    
 -0.0049998438118167   0.0086603442110272   0.0000000629687480
  -0.0080287800    0.0133581500    0.0001414600
   0.0004443400   -0.0012065900    0.0086456800
  -0.0213606000    0.0379133200   -0.0080093000
   0.0307642300   -0.0532296500   -0.0212106700
  -0.0018192000    0.0031647700    0.0204328400

4    
  0.0049998438118167  -0.0086603442110272  -0.0000000629687480
   0.0075604700   -0.0136200000    0.0001652000
  -0.0005611900    0.0005450800    0.0086612700
   0.0218749700   -0.0370306500   -0.0080819500
  -0.0306764900    0.0531955400   -0.0211967600
   0.0018022400   -0.0030899700    0.0204522400

4    
  0.0000000984811204   0.0000001278673047   0.0099999999986976
   0.0000059400    0.0000008300    0.0107920100
   0.0000623900   -0.0002661300    0.0269826600
  -0.0000625100    0.0002698500    0.0034317800
  -0.0001272600   -0.0001124200   -0.0951320200
   0.0001214300    0.0001078700    0.0539255600

4    
 -0.0000000984811204  -0.0000001278673047  -0.0099999999986976
  -0.0000064200    0.0000001500   -0.0097154200
   0.0000763700   -0.0002569700   -0.0089946100
  -0.0000860200    0.0002528700   -0.0200104600
  -0.0000966900   -0.0001005600    0.0511549600
   0.0001127600    0.0001045100   -0.0124344800

5    
  0.0099999999838227   0.0000005602409401   0.0000000983618576
   0.0155876800   -0.0002693600    0.0000236300
   0.0432994300    0.0001123900    0.0078216100
  -0.0010730000    0.0001188300   -0.0088460700
   0.0035084800   -0.0002491400   -0.0203123400
  -0.0613225900    0.0002872800    0.0213131700

5    
 -0.0099999999838227  -0.0000005602409401  -0.0000000983618576
  -0.0155736800   -0.0002636400    0.0000026900
  -0.0431710500    0.0001230000    0.0078617800
   0.0009413800    0.0001165000   -0.0088713000
  -0.0037252300   -0.0002476600   -0.0203293400
   0.0615285700    0.0002718000    0.0213361700

5    
 -0.0049998438118167   0.0086603442110272   0.0000000629687480
  -0.0075598000    0.0136205200    0.0000012800
  -0.0218797000    0.0370347700    0.0078769800
   0.0005588800   -0.0005461300   -0.0088663900
  -0.0017995400    0.0030887500   -0.0203306600
   0.0306801600   -0.0531979000    0.0213188000

5    
  0.0049998438118167  -0.0086603442110272  -0.0000000629687480
   0.0080293600   -0.0133572300    0.0000250800
   0.0213593100   -0.0379172300    0.0078043100
  -0.0004481400    0.0012082900   -0.0088510500
   0.0018215400   -0.0031651700   -0.0203113200
  -0.0307620600    0.0532313400    0.0213329900

5    
  0.0000000984811204   0.0000001278673047   0.0099999999986976
   0.0000071800    0.0000006200    0.0098811500
   0.0000830600   -0.0002525000    0.0197981400
  -0.0000792700    0.0002573600    0.0088021900
  -0.0001101900   -0.0001052500    0.0125551800
   0.0000992200    0.0000997700   -0.0510366600

5    
 -0.0000000984811204  -0.0000001278673047  -0.0099999999986976
  -0.0000051600   -0.0000002000   -0.0106222400
   0.0000595600   -0.0002694600   -0.0036354400
  -0.0000654100    0.0002665700   -0.0272007100
  -0.0001188500   -0.0001086200   -0.0537988000
   0.0001298700    0.0001117100    0.0952571900
