 vasp.6.1.2 22Jul20 (build Apr 14 2021 21:39:43) complex                        
  
 executed on             LinuxIFC date 2022.07.09  08:57:57
 running on   64 total cores
 distrk:  each k-point on   64 cores,    1 groups
 distr:  one band on NCORE=   4 cores,   16 groups


--------------------------------------------------------------------------------------------------------


 INCAR:
 POTCAR:    PAW_PBE Sr_sv 07Sep2000               
 POTCAR:    PAW_PBE Zn 06Sep2000                  
 POTCAR:    PAW_PBE N 08Apr2002                   
 POTCAR:    PAW_PBE Sr_sv 07Sep2000               
   SHA256 =  a8389d3481648516ee67182ee030b298d280b37e29cbbf2d8595f040d757c710 Sr_sv/POTCAR          
   COPYR  = (c) Copyright 07Sep2000 Georg Kresse                                                    
   COPYR  = This file is part of the software VASP. Any use, copying, and all other rights are regul
   COPYR  = If you do not have a valid VASP license, you may not use, copy or distribute this file. 
   VRHFIN =Sr: 4s4p5s                                                                               
   LEXCH  = PE                                                                                      
   EATOM  =   843.0319 eV,   61.9611 Ry                                                             
                                                                                                    
   TITEL  = PAW_PBE Sr_sv 07Sep2000                                                                 
   LULTRA =        F    use ultrasoft PP ?                                                          
   IUNSCR =        1    unscreen: 0-lin 1-nonlin 2-no                                               
   RPACOR =    2.200    partial core radius                                                         
   POMASS =   87.620; ZVAL   =   10.000    mass and valenz                                          
   RCORE  =    2.500    outmost cutoff radius                                                       
   RWIGS  =    4.040; RWIGS  =    2.138    wigner-seitz radius (au A)                               
   ENMAX  =  229.353; ENMIN  =  172.014 eV                                                          
   RCLOC  =    2.201    cutoff for local pot                                                        
   LCOR   =        T    correct aug charges                                                         
   LPAW   =        T    paw PP                                                                      
   EAUG   =  366.804                                                                                
   DEXC   =    0.000                                                                                
   RMAX   =    2.547    core radius for proj-oper                                                   
   RAUG   =    1.300    factor for augmentation sphere                                              
   RDEP   =    2.562    radius for radial grids                                                     
   RDEPT  =    2.128    core radius for aug-charge                                                  
                                                                                                    
   Atomic configuration                                                                             
   10 entries                                                                                       
     n  l   j            E        occ.                                                              
     1  0  0.50    -15934.8930   2.0000                                                             
     2  0  0.50     -2157.6250   2.0000                                                             
     2  1  1.50     -1917.0034   6.0000                                                             
     3  0  0.50      -333.7288   2.0000                                                             
     3  1  1.50      -256.0992   6.0000                                                             
     3  2  2.50      -127.9971  10.0000                                                             
     4  0  0.50       -40.8953   2.0000                                                             
     5  0  0.50        -3.5257   1.9990                                                             
     4  1  1.50       -22.8179   6.0000                                                             
     4  2  1.50        -1.2815   0.0010                                                             
   Description                                                                                      
     l       E           TYP  RCUT    TYP  RCUT                                                     
     0    -40.8953213     23  2.480                                                                 
     0     -3.5257161     23  2.480                                                                 
     1    -22.8178632     23  2.500                                                                 
     1    -24.1784458     23  2.500                                                                 
     2     -1.2814598     23  2.500                                                                 
     2      0.2279365     23  2.500                                                                 
  local pseudopotential read in
  partial core-charges read in
  partial kinetic energy density read in
  atomic valenz-charges read in
  non local Contribution for L=           0  read in
    real space projection operators read in
  non local Contribution for L=           0  read in
    real space projection operators read in
  non local Contribution for L=           1  read in
    real space projection operators read in
  non local Contribution for L=           1  read in
    real space projection operators read in
  non local Contribution for L=           2  read in
    real space projection operators read in
  non local Contribution for L=           2  read in
    real space projection operators read in
    PAW grid and wavefunctions read in
 
   number of l-projection  operators is LMAX  =           6
   number of lm-projection operators is LMMAX =          18
 
 POTCAR:    PAW_PBE Zn 06Sep2000                  
   SHA256 =  501fddbd8274dd8e9725d4f3de27861d7f1e553a7e18441bc79fed8f346e7f23 Zn/POTCAR             
   COPYR  = (c) Copyright 06Sep2000 Georg Kresse                                                    
   COPYR  = This file is part of the software VASP. Any use, copying, and all other rights are regul
   COPYR  = If you do not have a valid VASP license, you may not use, copy or distribute this file. 
   VRHFIN =Zn: d10 p2                                                                               
   LEXCH  = PE                                                                                      
   EATOM  =  1748.8345 eV,  128.5357 Ry                                                             
                                                                                                    
   TITEL  = PAW_PBE Zn 06Sep2000                                                                    
   LULTRA =        F    use ultrasoft PP ?                                                          
   IUNSCR =        1    unscreen: 0-lin 1-nonlin 2-no                                               
   RPACOR =    2.000    partial core radius                                                         
   POMASS =   65.390; ZVAL   =   12.000    mass and valenz                                          
   RCORE  =    2.300    outmost cutoff radius                                                       
   RWIGS  =    2.400; RWIGS  =    1.270    wigner-seitz radius (au A)                               
   ENMAX  =  276.723; ENMIN  =  207.542 eV                                                          
   RCLOC  =    1.828    cutoff for local pot                                                        
   LCOR   =        T    correct aug charges                                                         
   LPAW   =        T    paw PP                                                                      
   EAUG   =  575.892                                                                                
   DEXC   =    0.000                                                                                
   RMAX   =    2.347    core radius for proj-oper                                                   
   RAUG   =    1.300    factor for augmentation sphere                                              
   RDEP   =    2.324    radius for radial grids                                                     
   RDEPT  =    1.788    core radius for aug-charge                                                  
                                                                                                    
   Atomic configuration                                                                             
    9 entries                                                                                       
     n  l   j            E        occ.                                                              
     1  0  0.50     -9524.6913   2.0000                                                             
     2  0  0.50     -1158.1882   2.0000                                                             
     2  1  1.50     -1003.8506   6.0000                                                             
     3  0  0.50      -129.2194   2.0000                                                             
     3  1  1.50       -83.3890   6.0000                                                             
     3  2  2.50       -10.1410  10.0000                                                             
     4  0  0.50        -5.9785   2.0000                                                             
     4  1  0.50        -4.0817   0.0000                                                             
     4  3  2.50        -1.3606   0.0000                                                             
   Description                                                                                      
     l       E           TYP  RCUT    TYP  RCUT                                                     
     2    -10.1410010     23  2.300                                                                 
     2    -11.5015836     23  2.300                                                                 
     0     -5.9785163     23  2.300                                                                 
     0      1.1858015     23  2.300                                                                 
     1     -2.7211652     23  2.300                                                                 
     1     13.2444212     23  2.300                                                                 
  local pseudopotential read in
  partial core-charges read in
  partial kinetic energy density read in
  atomic valenz-charges read in
  non local Contribution for L=           2  read in
    real space projection operators read in
  non local Contribution for L=           2  read in
    real space projection operators read in
  non local Contribution for L=           0  read in
    real space projection operators read in
  non local Contribution for L=           0  read in
    real space projection operators read in
  non local Contribution for L=           1  read in
    real space projection operators read in
  non local Contribution for L=           1  read in
    real space projection operators read in
    PAW grid and wavefunctions read in
 
   number of l-projection  operators is LMAX  =           6
   number of lm-projection operators is LMMAX =          18
 
 POTCAR:    PAW_PBE N 08Apr2002                   
   SHA256 =  e053789ff3a61a86a1b75d8a110fcc91f86041011e7b0817c7c99e4e8a6349d7 N/POTCAR              
   COPYR  = (c) Copyright 08Apr2002 Georg Kresse                                                    
   COPYR  = This file is part of the software VASP. Any use, copying, and all other rights are regul
   COPYR  = If you do not have a valid VASP license, you may not use, copy or distribute this file. 
   VRHFIN =N: s2p3                                                                                  
   LEXCH  = PE                                                                                      
   EATOM  =   264.5486 eV,   19.4438 Ry                                                             
                                                                                                    
   TITEL  = PAW_PBE N 08Apr2002                                                                     
   LULTRA =        F    use ultrasoft PP ?                                                          
   IUNSCR =        1    unscreen: 0-lin 1-nonlin 2-no                                               
   RPACOR =    1.200    partial core radius                                                         
   POMASS =   14.001; ZVAL   =    5.000    mass and valenz                                          
   RCORE  =    1.500    outmost cutoff radius                                                       
   RWIGS  =    1.400; RWIGS  =    0.741    wigner-seitz radius (au A)                               
   ENMAX  =  400.000; ENMIN  =  300.000 eV                                                          
   ICORE  =        2    local potential                                                             
   LCOR   =        T    correct aug charges                                                         
   LPAW   =        T    paw PP                                                                      
   EAUG   =  627.112                                                                                
   DEXC   =    0.000                                                                                
   RMAX   =    1.529    core radius for proj-oper                                                   
   RAUG   =    1.300    factor for augmentation sphere                                              
   RDEP   =    1.514    radius for radial grids                                                     
   RDEPT  =    1.338    core radius for aug-charge                                                  
                                                                                                    
   Atomic configuration                                                                             
    4 entries                                                                                       
     n  l   j            E        occ.                                                              
     1  0  0.50      -384.7179   2.0000                                                             
     2  0  0.50       -18.5828   2.0000                                                             
     2  1  0.50        -7.0898   3.0000                                                             
     3  2  1.50        -6.8029   0.0000                                                             
   Description                                                                                      
     l       E           TYP  RCUT    TYP  RCUT                                                     
     0    -18.5828119     23  1.200                                                                 
     0    -13.5018863     23  1.200                                                                 
     1     -7.0897853     23  1.500                                                                 
     1      9.5240782     23  1.500                                                                 
     2     -6.8029130      7  1.500                                                                 
  local pseudopotential read in
  partial core-charges read in
  partial kinetic energy density read in
  atomic valenz-charges read in
  non local Contribution for L=           0  read in
    real space projection operators read in
  non local Contribution for L=           0  read in
    real space projection operators read in
  non local Contribution for L=           1  read in
    real space projection operators read in
  non local Contribution for L=           1  read in
    real space projection operators read in
    PAW grid and wavefunctions read in
 
   number of l-projection  operators is LMAX  =           4
   number of lm-projection operators is LMMAX =           8
 
  PAW_PBE Sr_sv 07Sep2000               :
 energy of atom  1       EATOM= -843.0319
 kinetic energy error for atom=    0.0010 (will be added to EATOM!!)
  PAW_PBE Zn 06Sep2000                  :
 energy of atom  2       EATOM=-1748.8345
 kinetic energy error for atom=    0.0029 (will be added to EATOM!!)
  PAW_PBE N 08Apr2002                   :
 energy of atom  3       EATOM= -264.5486
 kinetic energy error for atom=    0.0125 (will be added to EATOM!!)
 
 
 POSCAR: generated by phonopy
  positions in direct lattice
  No initial velocities read in

 METAGGA = SCAN     LMAXTAU =  6    LMIXTAU =  F

 exchange correlation table for  LEXCH =        8
   RHO(1)=    0.500       N(1)  =     2000
   RHO(2)=  100.500       N(2)  =     4000
 


--------------------------------------------------------------------------------------------------------


 ion  position               nearest neighbor table
   1  1.000  1.000  0.000-   5 2.67   5 2.67   5 2.67   4 2.67   4 2.67   4 2.67   3 3.08   3 3.08
                             2 3.08   2 3.08   3 3.08   2 3.08
   2  0.333  0.667  0.628-   5 2.12   5 2.12   5 2.12   4 2.17   3 2.58   3 2.58   3 2.58   1 3.08
                             1 3.08   1 3.08
   3  0.667  0.333  0.372-   4 2.12   4 2.12   4 2.12   5 2.18   2 2.58   2 2.58   2 2.58   1 3.08
                             1 3.08   1 3.08
   4  0.333  0.667  0.279-   3 2.12   3 2.12   3 2.12   2 2.17   1 2.67   1 2.67   1 2.67
   5  0.667  0.333  0.723-   2 2.12   2 2.12   2 2.12   3 2.18   1 2.67   1 2.67   1 2.67
 

IMPORTANT INFORMATION: All symmetrisations will be switched off!
NOSYMM: (Re-)initialisation of all symmetry stuff for point group C_1.


----------------------------------------------------------------------------------------

                                     Primitive cell                                     

  volume of cell :      67.0709

  direct lattice vectors                    reciprocal lattice vectors
     3.527537600 -0.000068479 -0.000004402     0.283487045  0.163678720  0.000000224
    -1.763828104  3.054901805  0.000004174     0.000006355  0.327346433 -0.000000198
    -0.000007101  0.000003763  6.224008702     0.000000200 -0.000000104  0.160668156

  length of vectors
     3.527537600  3.527536622  6.224008702     0.327346342  0.327346433  0.160668156

  position of ions in fractional coordinates (direct lattice)
     0.999999650  0.999999964  0.000000236
     0.333334894  0.666665187  0.627712641
     0.666665281  0.333334833  0.372287090
     0.333336097  0.666664029  0.278548334
     0.666664017  0.333335987  0.723058412

  ion indices of the primitive-cell ions
   primitive index   ion index
                 1           1
                 2           2
                 3           3
                 4           4
                 5           5

----------------------------------------------------------------------------------------

 
 
 KPOINTS: Kpoints                                 

Automatic generation of k-mesh.
 generate k-points for:   10   10    5
Space group operators:
 irot       det(A)        alpha          n_x          n_y          n_z        tau_x        tau_y        tau_z
    1     1.000000     0.000000     1.000000     0.000000     0.000000     0.000000     0.000000     0.000000
 
 Subroutine IBZKPT returns following result:
 ===========================================
 
 Found    252 irreducible k-points:
 
 Following reciprocal coordinates:
            Coordinates               Weight
  0.000000  0.000000  0.000000      1.000000
  0.100000  0.000000 -0.000000      2.000000
 -0.000000  0.100000 -0.000000      2.000000
  0.200000  0.000000 -0.000000      2.000000
 -0.000000  0.200000  0.000000      2.000000
  0.300000 -0.000000  0.000000      2.000000
 -0.000000  0.300000  0.000000      2.000000
  0.400000 -0.000000  0.000000      2.000000
 -0.000000  0.400000  0.000000      2.000000
  0.500000 -0.000000  0.000000      1.000000
  0.000000  0.500000 -0.000000      1.000000
  0.100000  0.100000  0.000000      2.000000
  0.200000  0.100000 -0.000000      2.000000
  0.100000  0.200000 -0.000000      2.000000
  0.300000  0.100000  0.000000      2.000000
  0.100000  0.300000 -0.000000      2.000000
  0.400000  0.100000  0.000000      2.000000
  0.100000  0.400000  0.000000      2.000000
  0.500000  0.100000 -0.000000      2.000000
  0.100000  0.500000 -0.000000      2.000000
 -0.400000  0.100000  0.000000      2.000000
  0.100000 -0.400000 -0.000000      2.000000
 -0.300000  0.100000 -0.000000      2.000000
  0.100000 -0.300000  0.000000      2.000000
 -0.200000  0.100000 -0.000000      2.000000
  0.100000 -0.200000 -0.000000      2.000000
 -0.100000  0.100000  0.000000      2.000000
  0.200000  0.200000 -0.000000      2.000000
  0.300000  0.200000 -0.000000      2.000000
  0.200000  0.300000  0.000000      2.000000
  0.400000  0.200000  0.000000      2.000000
  0.200000  0.400000 -0.000000      2.000000
  0.500000  0.200000  0.000000      2.000000
  0.200000  0.500000 -0.000000      2.000000
 -0.400000  0.200000 -0.000000      2.000000
  0.200000 -0.400000  0.000000      2.000000
 -0.300000  0.200000 -0.000000      2.000000
  0.200000 -0.300000  0.000000      2.000000
 -0.200000  0.200000 -0.000000      2.000000
  0.300000  0.300000 -0.000000      2.000000
  0.400000  0.300000  0.000000      2.000000
  0.300000  0.400000 -0.000000      2.000000
  0.500000  0.300000  0.000000      2.000000
  0.300000  0.500000  0.000000      2.000000
 -0.400000  0.300000  0.000000      2.000000
  0.300000 -0.400000  0.000000      2.000000
 -0.300000  0.300000  0.000000      2.000000
  0.400000  0.400000 -0.000000      2.000000
  0.500000  0.400000  0.000000      2.000000
  0.400000  0.500000 -0.000000      2.000000
 -0.400000  0.400000  0.000000      2.000000
  0.500000  0.500000  0.000000      1.000000
 -0.000000  0.000000  0.200000      2.000000
  0.100000  0.000000  0.200000      2.000000
 -0.100000  0.000000  0.200000      2.000000
 -0.000000  0.100000 -0.200000      2.000000
  0.000000 -0.100000 -0.200000      2.000000
  0.200000 -0.000000  0.200000      2.000000
 -0.200000  0.000000  0.200000      2.000000
 -0.000000  0.200000 -0.200000      2.000000
  0.000000 -0.200000 -0.200000      2.000000
  0.300000 -0.000000  0.200000      2.000000
 -0.300000  0.000000  0.200000      2.000000
  0.000000  0.300000 -0.200000      2.000000
  0.000000 -0.300000 -0.200000      2.000000
  0.400000  0.000000  0.200000      2.000000
 -0.400000  0.000000  0.200000      2.000000
 -0.000000  0.400000 -0.200000      2.000000
  0.000000 -0.400000 -0.200000      2.000000
  0.500000 -0.000000  0.200000      2.000000
 -0.000000  0.500000 -0.200000      2.000000
  0.100000  0.100000  0.200000      2.000000
 -0.100000 -0.100000  0.200000      2.000000
  0.200000  0.100000  0.200000      2.000000
 -0.200000 -0.100000  0.200000      2.000000
  0.100000  0.200000 -0.200000      2.000000
 -0.100000 -0.200000 -0.200000      2.000000
  0.300000  0.100000  0.200000      2.000000
 -0.300000 -0.100000  0.200000      2.000000
  0.100000  0.300000 -0.200000      2.000000
 -0.100000 -0.300000 -0.200000      2.000000
  0.400000  0.100000  0.200000      2.000000
 -0.400000 -0.100000  0.200000      2.000000
  0.100000  0.400000 -0.200000      2.000000
 -0.100000 -0.400000 -0.200000      2.000000
  0.500000  0.100000  0.200000      2.000000
  0.500000 -0.100000  0.200000      2.000000
  0.100000  0.500000 -0.200000      2.000000
 -0.100000  0.500000 -0.200000      2.000000
 -0.400000  0.100000  0.200000      2.000000
  0.400000 -0.100000  0.200000      2.000000
  0.100000 -0.400000 -0.200000      2.000000
 -0.100000  0.400000 -0.200000      2.000000
 -0.300000  0.100000  0.200000      2.000000
  0.300000 -0.100000  0.200000      2.000000
  0.100000 -0.300000 -0.200000      2.000000
 -0.100000  0.300000 -0.200000      2.000000
 -0.200000  0.100000  0.200000      2.000000
  0.200000 -0.100000  0.200000      2.000000
  0.100000 -0.200000 -0.200000      2.000000
 -0.100000  0.200000 -0.200000      2.000000
 -0.100000  0.100000  0.200000      2.000000
  0.100000 -0.100000  0.200000      2.000000
  0.200000  0.200000  0.200000      2.000000
 -0.200000 -0.200000  0.200000      2.000000
  0.300000  0.200000  0.200000      2.000000
 -0.300000 -0.200000  0.200000      2.000000
  0.200000  0.300000 -0.200000      2.000000
 -0.200000 -0.300000 -0.200000      2.000000
  0.400000  0.200000  0.200000      2.000000
 -0.400000 -0.200000  0.200000      2.000000
  0.200000  0.400000 -0.200000      2.000000
 -0.200000 -0.400000 -0.200000      2.000000
  0.500000  0.200000  0.200000      2.000000
  0.500000 -0.200000  0.200000      2.000000
  0.200000  0.500000 -0.200000      2.000000
 -0.200000  0.500000 -0.200000      2.000000
 -0.400000  0.200000  0.200000      2.000000
  0.400000 -0.200000  0.200000      2.000000
  0.200000 -0.400000 -0.200000      2.000000
 -0.200000  0.400000 -0.200000      2.000000
 -0.300000  0.200000  0.200000      2.000000
  0.300000 -0.200000  0.200000      2.000000
  0.200000 -0.300000 -0.200000      2.000000
 -0.200000  0.300000 -0.200000      2.000000
 -0.200000  0.200000  0.200000      2.000000
  0.200000 -0.200000  0.200000      2.000000
  0.300000  0.300000  0.200000      2.000000
 -0.300000 -0.300000  0.200000      2.000000
  0.400000  0.300000  0.200000      2.000000
 -0.400000 -0.300000  0.200000      2.000000
  0.300000  0.400000 -0.200000      2.000000
 -0.300000 -0.400000 -0.200000      2.000000
  0.500000  0.300000  0.200000      2.000000
  0.500000 -0.300000  0.200000      2.000000
  0.300000  0.500000 -0.200000      2.000000
 -0.300000  0.500000 -0.200000      2.000000
 -0.400000  0.300000  0.200000      2.000000
  0.400000 -0.300000  0.200000      2.000000
  0.300000 -0.400000 -0.200000      2.000000
 -0.300000  0.400000 -0.200000      2.000000
 -0.300000  0.300000  0.200000      2.000000
  0.300000 -0.300000  0.200000      2.000000
  0.400000  0.400000  0.200000      2.000000
 -0.400000 -0.400000  0.200000      2.000000
  0.500000  0.400000  0.200000      2.000000
  0.500000 -0.400000  0.200000      2.000000
  0.400000  0.500000 -0.200000      2.000000
 -0.400000  0.500000 -0.200000      2.000000
 -0.400000  0.400000  0.200000      2.000000
  0.400000 -0.400000  0.200000      2.000000
  0.500000  0.500000  0.200000      2.000000
  0.000000 -0.000000  0.400000      2.000000
  0.100000 -0.000000  0.400000      2.000000
 -0.100000 -0.000000  0.400000      2.000000
 -0.000000  0.100000 -0.400000      2.000000
  0.000000 -0.100000 -0.400000      2.000000
  0.200000  0.000000  0.400000      2.000000
 -0.200000  0.000000  0.400000      2.000000
 -0.000000  0.200000 -0.400000      2.000000
  0.000000 -0.200000 -0.400000      2.000000
  0.300000 -0.000000  0.400000      2.000000
 -0.300000  0.000000  0.400000      2.000000
 -0.000000  0.300000 -0.400000      2.000000
 -0.000000 -0.300000 -0.400000      2.000000
  0.400000 -0.000000  0.400000      2.000000
 -0.400000  0.000000  0.400000      2.000000
  0.000000  0.400000 -0.400000      2.000000
  0.000000 -0.400000 -0.400000      2.000000
  0.500000 -0.000000  0.400000      2.000000
  0.000000  0.500000 -0.400000      2.000000
  0.100000  0.100000  0.400000      2.000000
 -0.100000 -0.100000  0.400000      2.000000
  0.200000  0.100000  0.400000      2.000000
 -0.200000 -0.100000  0.400000      2.000000
  0.100000  0.200000 -0.400000      2.000000
 -0.100000 -0.200000 -0.400000      2.000000
  0.300000  0.100000  0.400000      2.000000
 -0.300000 -0.100000  0.400000      2.000000
  0.100000  0.300000 -0.400000      2.000000
 -0.100000 -0.300000 -0.400000      2.000000
  0.400000  0.100000  0.400000      2.000000
 -0.400000 -0.100000  0.400000      2.000000
  0.100000  0.400000 -0.400000      2.000000
 -0.100000 -0.400000 -0.400000      2.000000
  0.500000  0.100000  0.400000      2.000000
  0.500000 -0.100000  0.400000      2.000000
  0.100000  0.500000 -0.400000      2.000000
 -0.100000  0.500000 -0.400000      2.000000
 -0.400000  0.100000  0.400000      2.000000
  0.400000 -0.100000  0.400000      2.000000
  0.100000 -0.400000 -0.400000      2.000000
 -0.100000  0.400000 -0.400000      2.000000
 -0.300000  0.100000  0.400000      2.000000
  0.300000 -0.100000  0.400000      2.000000
  0.100000 -0.300000 -0.400000      2.000000
 -0.100000  0.300000 -0.400000      2.000000
 -0.200000  0.100000  0.400000      2.000000
  0.200000 -0.100000  0.400000      2.000000
  0.100000 -0.200000 -0.400000      2.000000
 -0.100000  0.200000 -0.400000      2.000000
 -0.100000  0.100000  0.400000      2.000000
  0.100000 -0.100000  0.400000      2.000000
  0.200000  0.200000  0.400000      2.000000
 -0.200000 -0.200000  0.400000      2.000000
  0.300000  0.200000  0.400000      2.000000
 -0.300000 -0.200000  0.400000      2.000000
  0.200000  0.300000 -0.400000      2.000000
 -0.200000 -0.300000 -0.400000      2.000000
  0.400000  0.200000  0.400000      2.000000
 -0.400000 -0.200000  0.400000      2.000000
  0.200000  0.400000 -0.400000      2.000000
 -0.200000 -0.400000 -0.400000      2.000000
  0.500000  0.200000  0.400000      2.000000
  0.500000 -0.200000  0.400000      2.000000
  0.200000  0.500000 -0.400000      2.000000
 -0.200000  0.500000 -0.400000      2.000000
 -0.400000  0.200000  0.400000      2.000000
  0.400000 -0.200000  0.400000      2.000000
  0.200000 -0.400000 -0.400000      2.000000
 -0.200000  0.400000 -0.400000      2.000000
 -0.300000  0.200000  0.400000      2.000000
  0.300000 -0.200000  0.400000      2.000000
  0.200000 -0.300000 -0.400000      2.000000
 -0.200000  0.300000 -0.400000      2.000000
 -0.200000  0.200000  0.400000      2.000000
  0.200000 -0.200000  0.400000      2.000000
  0.300000  0.300000  0.400000      2.000000
 -0.300000 -0.300000  0.400000      2.000000
  0.400000  0.300000  0.400000      2.000000
 -0.400000 -0.300000  0.400000      2.000000
  0.300000  0.400000 -0.400000      2.000000
 -0.300000 -0.400000 -0.400000      2.000000
  0.500000  0.300000  0.400000      2.000000
  0.500000 -0.300000  0.400000      2.000000
  0.300000  0.500000 -0.400000      2.000000
 -0.300000  0.500000 -0.400000      2.000000
 -0.400000  0.300000  0.400000      2.000000
  0.400000 -0.300000  0.400000      2.000000
  0.300000 -0.400000 -0.400000      2.000000
 -0.300000  0.400000 -0.400000      2.000000
 -0.300000  0.300000  0.400000      2.000000
  0.300000 -0.300000  0.400000      2.000000
  0.400000  0.400000  0.400000      2.000000
 -0.400000 -0.400000  0.400000      2.000000
  0.500000  0.400000  0.400000      2.000000
  0.500000 -0.400000  0.400000      2.000000
  0.400000  0.500000 -0.400000      2.000000
 -0.400000  0.500000 -0.400000      2.000000
 -0.400000  0.400000  0.400000      2.000000
  0.400000 -0.400000  0.400000      2.000000
  0.500000  0.500000  0.400000      2.000000
 
 Following cartesian coordinates:
            Coordinates               Weight
  0.000000  0.000000  0.000000      1.000000
  0.028349  0.016368  0.000000      2.000000
  0.000001  0.032735 -0.000000      2.000000
  0.056697  0.032736  0.000000      2.000000
  0.000001  0.065469 -0.000000      2.000000
  0.085046  0.049104  0.000000      2.000000
  0.000002  0.098204 -0.000000      2.000000
  0.113395  0.065471  0.000000      2.000000
  0.000003  0.130939 -0.000000      2.000000
  0.141744  0.081839  0.000000      1.000000
  0.000003  0.163673 -0.000000      1.000000
  0.028349  0.049103  0.000000      2.000000
  0.056698  0.065470  0.000000      2.000000
  0.028350  0.081837 -0.000000      2.000000
  0.085047  0.081838  0.000000      2.000000
  0.028351  0.114572 -0.000000      2.000000
  0.113395  0.098206  0.000000      2.000000
  0.028351  0.147306 -0.000000      2.000000
  0.141744  0.114574  0.000000      2.000000
  0.028352  0.180041 -0.000000      2.000000
 -0.113394 -0.032737 -0.000000      2.000000
  0.028346 -0.114571  0.000000      2.000000
 -0.085045 -0.016369 -0.000000      2.000000
  0.028347 -0.081836  0.000000      2.000000
 -0.056697 -0.000001 -0.000000      2.000000
  0.028347 -0.049101  0.000000      2.000000
 -0.028348  0.016367 -0.000000      2.000000
  0.056699  0.098205  0.000000      2.000000
  0.085047  0.114573  0.000000      2.000000
  0.056699  0.130940 -0.000000      2.000000
  0.113396  0.130941  0.000000      2.000000
  0.056700  0.163674 -0.000000      2.000000
  0.141745  0.147309  0.000000      2.000000
  0.056701  0.196409 -0.000000      2.000000
 -0.113394 -0.000002 -0.000000      2.000000
  0.056695 -0.098203  0.000000      2.000000
 -0.085045  0.016366 -0.000000      2.000000
  0.056696 -0.065468  0.000000      2.000000
 -0.056696  0.032734 -0.000000      2.000000
  0.085048  0.147308  0.000000      2.000000
  0.113397  0.163675  0.000000      2.000000
  0.085049  0.180042 -0.000000      2.000000
  0.141745  0.180043  0.000000      2.000000
  0.085049  0.212777 -0.000000      2.000000
 -0.113393  0.032732 -0.000000      2.000000
  0.085044 -0.081835  0.000000      2.000000
 -0.085044  0.049100 -0.000000      2.000000
  0.113397  0.196410  0.000000      2.000000
  0.141746  0.212778  0.000000      2.000000
  0.113398  0.229145 -0.000000      2.000000
 -0.113392  0.065467 -0.000000      2.000000
  0.141747  0.245513  0.000000      1.000000
  0.000000 -0.000000  0.032134      2.000000
  0.028349  0.016368  0.032134      2.000000
 -0.028349 -0.016368  0.032134      2.000000
  0.000001  0.032735 -0.032134      2.000000
 -0.000001 -0.032735 -0.032134      2.000000
  0.056697  0.032736  0.032134      2.000000
 -0.056697 -0.032736  0.032134      2.000000
  0.000001  0.065469 -0.032134      2.000000
 -0.000001 -0.065469 -0.032134      2.000000
  0.085046  0.049104  0.032134      2.000000
 -0.085046 -0.049104  0.032134      2.000000
  0.000002  0.098204 -0.032134      2.000000
 -0.000002 -0.098204 -0.032134      2.000000
  0.113395  0.065471  0.032134      2.000000
 -0.113395 -0.065472  0.032134      2.000000
  0.000003  0.130939 -0.032134      2.000000
 -0.000003 -0.130939 -0.032134      2.000000
  0.141744  0.081839  0.032134      2.000000
  0.000003  0.163673 -0.032134      2.000000
  0.028349  0.049102  0.032134      2.000000
 -0.028349 -0.049103  0.032134      2.000000
  0.056698  0.065470  0.032134      2.000000
 -0.056698 -0.065470  0.032134      2.000000
  0.028350  0.081837 -0.032134      2.000000
 -0.028350 -0.081837 -0.032134      2.000000
  0.085047  0.081838  0.032134      2.000000
 -0.085047 -0.081838  0.032134      2.000000
  0.028351  0.114572 -0.032134      2.000000
 -0.028351 -0.114572 -0.032134      2.000000
  0.113395  0.098206  0.032134      2.000000
 -0.113395 -0.098206  0.032134      2.000000
  0.028351  0.147306 -0.032134      2.000000
 -0.028351 -0.147306 -0.032134      2.000000
  0.141744  0.114574  0.032134      2.000000
  0.141743  0.049105  0.032134      2.000000
  0.028352  0.180041 -0.032134      2.000000
 -0.028346  0.147305 -0.032134      2.000000
 -0.113394 -0.032737  0.032134      2.000000
  0.113394  0.032737  0.032134      2.000000
  0.028346 -0.114571 -0.032134      2.000000
 -0.028346  0.114571 -0.032134      2.000000
 -0.085045 -0.016369  0.032134      2.000000
  0.085046  0.016369  0.032134      2.000000
  0.028347 -0.081836 -0.032134      2.000000
 -0.028347  0.081836 -0.032134      2.000000
 -0.056697 -0.000001  0.032134      2.000000
  0.056697  0.000001  0.032134      2.000000
  0.028347 -0.049101 -0.032134      2.000000
 -0.028347  0.049101 -0.032134      2.000000
 -0.028348  0.016367  0.032134      2.000000
  0.028348 -0.016367  0.032134      2.000000
  0.056699  0.098205  0.032134      2.000000
 -0.056699 -0.098205  0.032134      2.000000
  0.085047  0.114573  0.032134      2.000000
 -0.085047 -0.114573  0.032134      2.000000
  0.056699  0.130940 -0.032134      2.000000
 -0.056699 -0.130940 -0.032134      2.000000
  0.113396  0.130941  0.032134      2.000000
 -0.113396 -0.130941  0.032134      2.000000
  0.056700  0.163674 -0.032134      2.000000
 -0.056700 -0.163674 -0.032134      2.000000
  0.141745  0.147309  0.032134      2.000000
  0.141742  0.016370  0.032134      2.000000
  0.056701  0.196409 -0.032134      2.000000
 -0.056694  0.130937 -0.032134      2.000000
 -0.113394 -0.000002  0.032134      2.000000
  0.113394  0.000002  0.032134      2.000000
  0.056695 -0.098203 -0.032134      2.000000
 -0.056695  0.098203 -0.032134      2.000000
 -0.085045  0.016366  0.032134      2.000000
  0.085045 -0.016366  0.032134      2.000000
  0.056695 -0.065468 -0.032134      2.000000
 -0.056696  0.065468 -0.032134      2.000000
 -0.056696  0.032734  0.032134      2.000000
  0.056696 -0.032734  0.032134      2.000000
  0.085048  0.147308  0.032134      2.000000
 -0.085048 -0.147308  0.032134      2.000000
  0.113397  0.163675  0.032134      2.000000
 -0.113397 -0.163675  0.032134      2.000000
  0.085049  0.180042 -0.032134      2.000000
 -0.085049 -0.180042 -0.032134      2.000000
  0.141745  0.180043  0.032134      2.000000
  0.141742 -0.016365  0.032134      2.000000
  0.085049  0.212777 -0.032134      2.000000
 -0.085043  0.114570 -0.032134      2.000000
 -0.113393  0.032732  0.032133      2.000000
  0.113393 -0.032732  0.032134      2.000000
  0.085044 -0.081835 -0.032133      2.000000
 -0.085044  0.081835 -0.032134      2.000000
 -0.085044  0.049100  0.032134      2.000000
  0.085044 -0.049100  0.032134      2.000000
  0.113397  0.196410  0.032134      2.000000
 -0.113397 -0.196410  0.032134      2.000000
  0.141746  0.212778  0.032134      2.000000
  0.141741 -0.049099  0.032134      2.000000
  0.113398  0.229145 -0.032134      2.000000
 -0.113392  0.098202 -0.032134      2.000000
 -0.113392  0.065467  0.032133      2.000000
  0.113392 -0.065467  0.032134      2.000000
  0.141747  0.245513  0.032134      2.000000
  0.000000 -0.000000  0.064267      2.000000
  0.028349  0.016368  0.064267      2.000000
 -0.028349 -0.016368  0.064267      2.000000
  0.000001  0.032735 -0.064267      2.000000
 -0.000001 -0.032735 -0.064267      2.000000
  0.056697  0.032736  0.064267      2.000000
 -0.056697 -0.032736  0.064267      2.000000
  0.000001  0.065469 -0.064267      2.000000
 -0.000001 -0.065469 -0.064267      2.000000
  0.085046  0.049104  0.064267      2.000000
 -0.085046 -0.049104  0.064267      2.000000
  0.000002  0.098204 -0.064267      2.000000
 -0.000002 -0.098204 -0.064267      2.000000
  0.113395  0.065471  0.064267      2.000000
 -0.113395 -0.065472  0.064267      2.000000
  0.000002  0.130939 -0.064267      2.000000
 -0.000003 -0.130939 -0.064267      2.000000
  0.141744  0.081839  0.064267      2.000000
  0.000003  0.163673 -0.064267      2.000000
  0.028349  0.049102  0.064267      2.000000
 -0.028349 -0.049103  0.064267      2.000000
  0.056698  0.065470  0.064267      2.000000
 -0.056698 -0.065470  0.064267      2.000000
  0.028350  0.081837 -0.064267      2.000000
 -0.028350 -0.081837 -0.064267      2.000000
  0.085047  0.081838  0.064267      2.000000
 -0.085047 -0.081838  0.064267      2.000000
  0.028351  0.114572 -0.064267      2.000000
 -0.028351 -0.114572 -0.064267      2.000000
  0.113396  0.098206  0.064267      2.000000
 -0.113395 -0.098206  0.064267      2.000000
  0.028351  0.147306 -0.064267      2.000000
 -0.028351 -0.147306 -0.064267      2.000000
  0.141744  0.114574  0.064267      2.000000
  0.141743  0.049105  0.064267      2.000000
  0.028352  0.180041 -0.064267      2.000000
 -0.028346  0.147305 -0.064267      2.000000
 -0.113394 -0.032737  0.064267      2.000000
  0.113394  0.032737  0.064267      2.000000
  0.028346 -0.114571 -0.064267      2.000000
 -0.028346  0.114571 -0.064267      2.000000
 -0.085045 -0.016369  0.064267      2.000000
  0.085046  0.016369  0.064267      2.000000
  0.028347 -0.081836 -0.064267      2.000000
 -0.028347  0.081836 -0.064267      2.000000
 -0.056697 -0.000001  0.064267      2.000000
  0.056697  0.000001  0.064267      2.000000
  0.028347 -0.049101 -0.064267      2.000000
 -0.028348  0.049101 -0.064267      2.000000
 -0.028348  0.016367  0.064267      2.000000
  0.028348 -0.016367  0.064267      2.000000
  0.056699  0.098205  0.064267      2.000000
 -0.056699 -0.098205  0.064267      2.000000
  0.085047  0.114573  0.064267      2.000000
 -0.085047 -0.114573  0.064267      2.000000
  0.056699  0.130940 -0.064267      2.000000
 -0.056699 -0.130940 -0.064267      2.000000
  0.113396  0.130941  0.064267      2.000000
 -0.113396 -0.130941  0.064267      2.000000
  0.056700  0.163674 -0.064267      2.000000
 -0.056700 -0.163674 -0.064267      2.000000
  0.141745  0.147309  0.064267      2.000000
  0.141742  0.016370  0.064267      2.000000
  0.056701  0.196409 -0.064267      2.000000
 -0.056694  0.130938 -0.064267      2.000000
 -0.113393 -0.000002  0.064267      2.000000
  0.113394  0.000002  0.064267      2.000000
  0.056695 -0.098203 -0.064267      2.000000
 -0.056695  0.098203 -0.064267      2.000000
 -0.085045  0.016366  0.064267      2.000000
  0.085045 -0.016366  0.064267      2.000000
  0.056695 -0.065468 -0.064267      2.000000
 -0.056696  0.065468 -0.064267      2.000000
 -0.056696  0.032734  0.064267      2.000000
  0.056696 -0.032734  0.064267      2.000000
  0.085048  0.147308  0.064267      2.000000
 -0.085048 -0.147308  0.064267      2.000000
  0.113397  0.163675  0.064267      2.000000
 -0.113397 -0.163675  0.064267      2.000000
  0.085049  0.180042 -0.064267      2.000000
 -0.085049 -0.180042 -0.064267      2.000000
  0.141746  0.180043  0.064267      2.000000
  0.141742 -0.016365  0.064267      2.000000
  0.085049  0.212777 -0.064267      2.000000
 -0.085043  0.114570 -0.064267      2.000000
 -0.113393  0.032732  0.064267      2.000000
  0.113393 -0.032732  0.064267      2.000000
  0.085043 -0.081835 -0.064267      2.000000
 -0.085044  0.081835 -0.064267      2.000000
 -0.085044  0.049100  0.064267      2.000000
  0.085044 -0.049100  0.064267      2.000000
  0.113397  0.196410  0.064267      2.000000
 -0.113397 -0.196410  0.064267      2.000000
  0.141746  0.212778  0.064267      2.000000
  0.141741 -0.049099  0.064267      2.000000
  0.113398  0.229145 -0.064267      2.000000
 -0.113392  0.098202 -0.064267      2.000000
 -0.113392  0.065467  0.064267      2.000000
  0.113392 -0.065467  0.064267      2.000000
  0.141747  0.245513  0.064267      2.000000
 


--------------------------------------------------------------------------------------------------------




 Dimension of arrays:
   k-points           NKPTS =    252   k-points in BZ     NKDIM =    252   number of bands    NBANDS=     32
   number of dos      NEDOS =    301   number of ions     NIONS =      5
   non local maximal  LDIM  =      6   non local SUM 2l+1 LMDIM =     18
   total plane-waves  NPLWV =  37632
   max r-space proj   IRMAX =      1   max aug-charges    IRDMAX=  33095
   dimension x,y,z NGX =    28 NGY =   28 NGZ =   48
   dimension x,y,z NGXF=    56 NGYF=   56 NGZF=   96
   support grid    NGXF=    56 NGYF=   56 NGZF=   96
   ions per type =               1   2   2
   NGX,Y,Z   is equivalent  to a cutoff of  13.20, 13.20, 12.82 a.u.
   NGXF,Y,Z  is equivalent  to a cutoff of  26.39, 26.39, 25.64 a.u.

 SYSTEM =  unknown system                          
 POSCAR =  generated by phonopy                    

 Startparameter for this run:
   NWRITE =      2    write-flag & timer
   PREC   = accura    normal or accurate (medium, high low for compatibility)
   ISTART =      0    job   : 0-new  1-cont  2-samecut
   ICHARG =      2    charge: 1-file 2-atom 10-const
   ISPIN  =      2    spin polarized calculation?
   LNONCOLLINEAR =      F non collinear calculations
   LSORBIT =      F    spin-orbit coupling
   INIWAV =      1    electr: 0-lowe 1-rand  2-diag
   LASPH  =      T    aspherical Exc in radial PAW
   METAGGA=      F    non-selfconsistent MetaGGA calc.

 Electronic Relaxation 1
   ENCUT  =  520.0 eV  38.22 Ry    6.18 a.u.   6.56  6.56 11.57*2*pi/ulx,y,z
   ENINI  =  520.0     initial cutoff
   ENAUG  =  627.1 eV  augmentation charge cutoff
   NELM   =    200;   NELMIN=  6; NELMDL= -5     # of ELM steps 
   EDIFF  = 0.1E-04   stopping-criterion for ELM
   LREAL  =      F    real-space projection
   NLSPLINE    = F    spline interpolate recip. space projectors
   LCOMPAT=      F    compatible to vasp.4.4
   GGA_COMPAT  = T    GGA compatible to vasp.4.4-vasp.4.6
   LMAXPAW     = -100 max onsite density
   LMAXMIX     =    2 max onsite mixed and CHGCAR
   VOSKOWN=      0    Vosko Wilk Nusair interpolation
   ROPT   =    0.00000   0.00000   0.00000
 Ionic relaxation
   EDIFFG = -.3E-01   stopping-criterion for IOM
   NSW    =      0    number of steps for IOM
   NBLOCK =      1;   KBLOCK =      1    inner block; outer block 
   IBRION =     -1    ionic relax: 0-MD 1-quasi-New 2-CG
   NFREE  =      0    steps in history (QN), initial steepest desc. (CG)
   ISIF   =      2    stress and relaxation
   IWAVPR =     10    prediction:  0-non 1-charg 2-wave 3-comb
   ISYM   =      0    0-nonsym 1-usesym 2-fastsym
   LCORR  =      T    Harris-Foulkes like correction to forces

   POTIM  = 0.5000    time-step for ionic-motion
   TEIN   =    0.0    initial temperature
   TEBEG  =    0.0;   TEEND  =   0.0 temperature during run
   SMASS  =  -3.00    Nose mass-parameter (am)
   estimated Nose-frequenzy (Omega)   =  0.10E-29 period in steps = 0.13E+47 mass=  -0.284E-27a.u.
   SCALEE = 1.0000    scale energy and forces
   NPACO  =    256;   APACO  = 16.0  distance and # of slots for P.C.
   PSTRESS=    0.0 pullay stress

  Mass of Ions in am
   POMASS =  87.62 65.39 14.00
  Ionic Valenz
   ZVAL   =  10.00 12.00  5.00
  Atomic Wigner-Seitz radii
   RWIGS  =  -1.00 -1.00 -1.00
  virtual crystal weights 
   VCA    =   1.00  1.00  1.00
   NELECT =      44.0000    total number of electrons
   NUPDOWN=      -1.0000    fix difference up-down

 DOS related values:
   EMIN   =  10.00;   EMAX   =-10.00  energy-range for DOS
   EFERMI =   0.00
   ISMEAR =     0;   SIGMA  =   0.05  broadening in eV -4-tet -1-fermi 0-gaus

 Electronic relaxation 2 (details)
   IALGO  =     38    algorithm
   LDIAG  =      T    sub-space diagonalisation (order eigenvalues)
   LSUBROT=      F    optimize rotation matrix (better conditioning)
   TURBO    =      0    0=normal 1=particle mesh
   IRESTART =      0    0=no restart 2=restart with 2 vectors
   NREBOOT  =      0    no. of reboots
   NMIN     =      0    reboot dimension
   EREF     =   0.00    reference energy to select bands
   IMIX   =      4    mixing-type and parameters
     AMIX     =   0.40;   BMIX     =  1.00
     AMIX_MAG =   1.60;   BMIX_MAG =  1.00
     AMIN     =   0.10
     WC   =   100.;   INIMIX=   1;  MIXPRE=   1;  MAXMIX= -45

 Intra band minimization:
   WEIMIN = 0.0000     energy-eigenvalue tresh-hold
   EBREAK =  0.78E-07  absolut break condition
   DEPER  =   0.30     relativ break condition  

   TIME   =   0.40     timestep for ELM

  volume/ion in A,a.u.               =      13.41        90.52
  Fermi-wavevector in a.u.,A,eV,Ry     =   1.422485  2.688107 27.530887  2.023463
  Thomas-Fermi vector in A             =   2.543184
 
 Write flags
   LWAVE        =      F    write WAVECAR
   LDOWNSAMPLE  =      F    k-point downsampling of WAVECAR
   LCHARG       =      F    write CHGCAR
   LVTOT        =      F    write LOCPOT, total local potential
   LVHAR        =      F    write LOCPOT, Hartree potential only
   LELF         =      F    write electronic localiz. function (ELF)
   LORBIT       =     11    0 simple, 1 ext, 2 COOP (PROOUT), +10 PAW based schemes


 Dipole corrections
   LMONO  =      F    monopole corrections only (constant potential shift)
   LDIPOL =      F    correct potential (dipole corrections)
   IDIPOL =      0    1-x, 2-y, 3-z, 4-all directions 
   EPSILON=  1.0000000 bulk dielectric constant

 Exchange correlation treatment:
   GGA     =    --    GGA type
   LEXCH   =     8    internal setting for exchange type
   VOSKOWN=      0    Vosko Wilk Nusair interpolation
   LHFCALC =     F    Hartree Fock is set to
   LHFONE  =     F    Hartree Fock one center treatment
   AEXX    =    0.0000 exact exchange contribution

 Linear response parameters
   LEPSILON=     F    determine dielectric tensor
   LRPA    =     F    only Hartree local field effects (RPA)
   LNABLA  =     F    use nabla operator in PAW spheres
   LVEL    =     F    velocity operator in full k-point grid
   LINTERFAST=   F  fast interpolation
   KINTER  =     0    interpolate to denser k-point grid
   CSHIFT  =0.1000    complex shift for real part using Kramers Kronig
   OMEGAMAX=  -1.0    maximum frequency
   DEG_THRESHOLD= 0.2000000E-02 threshold for treating states as degnerate
   RTIME   =   -0.100 relaxation time in fs
  (WPLASMAI=    0.000 imaginary part of plasma frequency in eV, 0.658/RTIME)
   DFIELD  = 0.0000000 0.0000000 0.0000000 field for delta impulse in time
 
 Orbital magnetization related:
   ORBITALMAG=     F  switch on orbital magnetization
   LCHIMAG   =     F  perturbation theory with respect to B field
   DQ        =  0.001000  dq finite difference perturbation B field
   LLRAUG    =     F  two centre corrections for induced B field



--------------------------------------------------------------------------------------------------------


 Static calculation
 charge density and potential will be updated during run
 spin polarized calculation
 Variant of blocked Davidson
 Davidson routine will perform the subspace rotation
 perform sub-space diagonalisation
    after iterative eigenvector-optimisation
 modified Broyden-mixing scheme, WC =      100.0
 initial mixing is a Kerker type mixing with AMIX =  0.4000 and BMIX =      1.0000
 Hartree-type preconditioning will be used
 using additional bands           10
 reciprocal scheme for non local part
 use partial core corrections
 calculate Harris-corrections to forces 
   (improved forces if not selfconsistent)
 use gradient corrections 
 use of overlap-Matrix (Vanderbilt PP)
 Gauss-broadening in eV      SIGMA  =   0.05


--------------------------------------------------------------------------------------------------------


  energy-cutoff  :      520.00
  volume of cell :       67.07
      direct lattice vectors                 reciprocal lattice vectors
     3.527537600 -0.000068479 -0.000004402     0.283487045  0.163678720  0.000000224
    -1.763828104  3.054901805  0.000004174     0.000006355  0.327346433 -0.000000198
    -0.000007101  0.000003763  6.224008702     0.000000200 -0.000000104  0.160668156

  length of vectors
     3.527537600  3.527536622  6.224008702     0.327346342  0.327346433  0.160668156


 
 k-points in units of 2pi/SCALE and weight: Kpoints                                 
   0.00000000  0.00000000  0.00000000       0.002
   0.02834870  0.01636787  0.00000002       0.004
   0.00000064  0.03273464 -0.00000002       0.004
   0.05669741  0.03273574  0.00000004       0.004
   0.00000127  0.06546929 -0.00000004       0.004
   0.08504611  0.04910362  0.00000007       0.004
   0.00000191  0.09820393 -0.00000006       0.004
   0.11339482  0.06547149  0.00000009       0.004
   0.00000254  0.13093857 -0.00000008       0.004
   0.14174352  0.08183936  0.00000011       0.002
   0.00000318  0.16367322 -0.00000010       0.002
   0.02834934  0.04910252  0.00000000       0.004
   0.05669804  0.06547039  0.00000003       0.004
   0.02834998  0.08183716 -0.00000002       0.004
   0.08504675  0.08183826  0.00000005       0.004
   0.02835061  0.11457180 -0.00000004       0.004
   0.11339545  0.09820613  0.00000007       0.004
   0.02835125  0.14730645 -0.00000006       0.004
   0.14174416  0.11457400  0.00000009       0.004
   0.02835188  0.18004109 -0.00000008       0.004
  -0.11339418 -0.03273684 -0.00000011       0.004
   0.02834616 -0.11457070  0.00000010       0.004
  -0.08504548 -0.01636897 -0.00000009       0.004
   0.02834680 -0.08183606  0.00000008       0.004
  -0.05669677 -0.00000110 -0.00000006       0.004
   0.02834743 -0.04910141  0.00000006       0.004
  -0.02834807  0.01636677 -0.00000004       0.004
   0.05669868  0.09820503  0.00000001       0.004
   0.08504738  0.11457290  0.00000003       0.004
   0.05669932  0.13093967 -0.00000001       0.004
   0.11339609  0.13094077  0.00000005       0.004
   0.05669995  0.16367432 -0.00000003       0.004
   0.14174479  0.14730865  0.00000007       0.004
   0.05670059  0.19640896 -0.00000005       0.004
  -0.11339355 -0.00000220 -0.00000013       0.004
   0.05669487 -0.09820283  0.00000012       0.004
  -0.08504484  0.01636567 -0.00000011       0.004
   0.05669550 -0.06546819  0.00000010       0.004
  -0.05669614  0.03273354 -0.00000008       0.004
   0.08504802  0.14730755  0.00000001       0.004
   0.11339672  0.16367542  0.00000003       0.004
   0.08504866  0.18004219 -0.00000001       0.004
   0.14174543  0.18004329  0.00000005       0.004
   0.08504929  0.21277683 -0.00000003       0.004
  -0.11339291  0.03273244 -0.00000015       0.004
   0.08504357 -0.08183496  0.00000015       0.004
  -0.08504421  0.04910031 -0.00000013       0.004
   0.11339736  0.19641006  0.00000001       0.004
   0.14174606  0.21277793  0.00000003       0.004
   0.11339800  0.22914470 -0.00000001       0.004
  -0.11339228  0.06546709 -0.00000017       0.004
   0.14174670  0.24551258  0.00000001       0.002
   0.00000004 -0.00000002  0.03213363       0.004
   0.02834874  0.01636785  0.03213365       0.004
  -0.02834866 -0.01636789  0.03213361       0.004
   0.00000060  0.03273466 -0.03213365       0.004
  -0.00000068 -0.03273462 -0.03213361       0.004
   0.05669745  0.03273572  0.03213368       0.004
  -0.05669737 -0.03273576  0.03213359       0.004
   0.00000123  0.06546931 -0.03213367       0.004
  -0.00000131 -0.06546927 -0.03213359       0.004
   0.08504615  0.04910360  0.03213370       0.004
  -0.08504607 -0.04910364  0.03213356       0.004
   0.00000187  0.09820395 -0.03213369       0.004
  -0.00000195 -0.09820391 -0.03213357       0.004
   0.11339486  0.06547147  0.03213372       0.004
  -0.11339478 -0.06547151  0.03213354       0.004
   0.00000250  0.13093859 -0.03213371       0.004
  -0.00000258 -0.13093855 -0.03213355       0.004
   0.14174356  0.08183934  0.03213374       0.004
   0.00000314  0.16367324 -0.03213373       0.004
   0.02834938  0.04910249  0.03213363       0.004
  -0.02834930 -0.04910254  0.03213363       0.004
   0.05669808  0.06547037  0.03213366       0.004
  -0.05669800 -0.06547041  0.03213361       0.004
   0.02834994  0.08183718 -0.03213365       0.004
  -0.02835002 -0.08183714 -0.03213361       0.004
   0.08504679  0.08183824  0.03213368       0.004
  -0.08504671 -0.08183828  0.03213358       0.004
   0.02835057  0.11457182 -0.03213367       0.004
  -0.02835065 -0.11457178 -0.03213359       0.004
   0.11339549  0.09820611  0.03213370       0.004
  -0.11339541 -0.09820615  0.03213356       0.004
   0.02835121  0.14730647 -0.03213369       0.004
  -0.02835129 -0.14730642 -0.03213357       0.004
   0.14174420  0.11457398  0.03213372       0.004
   0.14174293  0.04910470  0.03213376       0.004
   0.02835184  0.18004111 -0.03213371       0.004
  -0.02834557  0.14730537 -0.03213375       0.004
  -0.11339414 -0.03273687  0.03213352       0.004
   0.11339422  0.03273682  0.03213374       0.004
   0.02834612 -0.11457068 -0.03213353       0.004
  -0.02834620  0.11457072 -0.03213373       0.004
  -0.08504544 -0.01636899  0.03213354       0.004
   0.08504552  0.01636895  0.03213372       0.004
   0.02834676 -0.08183604 -0.03213355       0.004
  -0.02834684  0.08183608 -0.03213371       0.004
  -0.05669673 -0.00000112  0.03213357       0.004
   0.05669681  0.00000108  0.03213370       0.004
   0.02834739 -0.04910139 -0.03213357       0.004
  -0.02834747  0.04910144 -0.03213369       0.004
  -0.02834803  0.01636675  0.03213359       0.004
   0.02834811 -0.01636679  0.03213367       0.004
   0.05669872  0.09820501  0.03213364       0.004
  -0.05669864 -0.09820505  0.03213363       0.004
   0.08504742  0.11457288  0.03213366       0.004
  -0.08504734 -0.11457292  0.03213360       0.004
   0.05669928  0.13093969 -0.03213365       0.004
  -0.05669936 -0.13093965 -0.03213362       0.004
   0.11339613  0.13094075  0.03213368       0.004
  -0.11339605 -0.13094080  0.03213358       0.004
   0.05669991  0.16367434 -0.03213367       0.004
  -0.05669999 -0.16367430 -0.03213360       0.004
   0.14174483  0.14730863  0.03213370       0.004
   0.14174229  0.01637005  0.03213378       0.004
   0.05670055  0.19640898 -0.03213369       0.004
  -0.05669427  0.13093749 -0.03213378       0.004
  -0.11339351 -0.00000222  0.03213350       0.004
   0.11339359  0.00000218  0.03213376       0.004
   0.05669483 -0.09820281 -0.03213351       0.004
  -0.05669491  0.09820285 -0.03213376       0.004
  -0.08504480  0.01636565  0.03213352       0.004
   0.08504488 -0.01636569  0.03213374       0.004
   0.05669546 -0.06546817 -0.03213353       0.004
  -0.05669554  0.06546821 -0.03213374       0.004
  -0.05669610  0.03273352  0.03213355       0.004
   0.05669618 -0.03273356  0.03213372       0.004
   0.08504806  0.14730753  0.03213364       0.004
  -0.08504798 -0.14730757  0.03213362       0.004
   0.11339676  0.16367540  0.03213366       0.004
  -0.11339668 -0.16367544  0.03213360       0.004
   0.08504862  0.18004221 -0.03213364       0.004
  -0.08504870 -0.18004217 -0.03213362       0.004
   0.14174547  0.18004327  0.03213368       0.004
   0.14174166 -0.01636459  0.03213380       0.004
   0.08504925  0.21277685 -0.03213366       0.004
  -0.08504298  0.11456962 -0.03213380       0.004
  -0.11339287  0.03273242  0.03213348       0.004
   0.11339295 -0.03273246  0.03213378       0.004
   0.08504353 -0.08183494 -0.03213348       0.004
  -0.08504361  0.08183498 -0.03213378       0.004
  -0.08504417  0.04910029  0.03213350       0.004
   0.08504425 -0.04910033  0.03213376       0.004
   0.11339740  0.19641004  0.03213364       0.004
  -0.11339732 -0.19641008  0.03213362       0.004
   0.14174610  0.21277791  0.03213366       0.004
   0.14174102 -0.04909923  0.03213382       0.004
   0.11339796  0.22914473 -0.03213364       0.004
  -0.11339168  0.09820175 -0.03213382       0.004
  -0.11339224  0.06546706  0.03213346       0.004
   0.11339232 -0.06546711  0.03213380       0.004
   0.14174674  0.24551256  0.03213364       0.004
   0.00000008 -0.00000004  0.06426726       0.004
   0.02834878  0.01636783  0.06426728       0.004
  -0.02834862 -0.01636791  0.06426724       0.004
   0.00000056  0.03273468 -0.06426728       0.004
  -0.00000072 -0.03273460 -0.06426724       0.004
   0.05669749  0.03273570  0.06426731       0.004
  -0.05669733 -0.03273579  0.06426722       0.004
   0.00000119  0.06546933 -0.06426730       0.004
  -0.00000135 -0.06546925 -0.06426722       0.004
   0.08504619  0.04910357  0.06426733       0.004
  -0.08504603 -0.04910366  0.06426719       0.004
   0.00000183  0.09820397 -0.06426732       0.004
  -0.00000199 -0.09820389 -0.06426720       0.004
   0.11339490  0.06547145  0.06426735       0.004
  -0.11339474 -0.06547153  0.06426717       0.004
   0.00000246  0.13093861 -0.06426734       0.004
  -0.00000262 -0.13093853 -0.06426718       0.004
   0.14174360  0.08183932  0.06426737       0.004
   0.00000310  0.16367326 -0.06426736       0.004
   0.02834942  0.04910247  0.06426726       0.004
  -0.02834926 -0.04910256  0.06426726       0.004
   0.05669812  0.06547035  0.06426729       0.004
  -0.05669796 -0.06547043  0.06426724       0.004
   0.02834990  0.08183720 -0.06426728       0.004
  -0.02835006 -0.08183712 -0.06426725       0.004
   0.08504683  0.08183822  0.06426731       0.004
  -0.08504667 -0.08183830  0.06426721       0.004
   0.02835053  0.11457184 -0.06426730       0.004
  -0.02835069 -0.11457176 -0.06426723       0.004
   0.11339553  0.09820609  0.06426733       0.004
  -0.11339537 -0.09820617  0.06426719       0.004
   0.02835117  0.14730649 -0.06426732       0.004
  -0.02835133 -0.14730640 -0.06426721       0.004
   0.14174424  0.11457396  0.06426735       0.004
   0.14174297  0.04910468  0.06426739       0.004
   0.02835180  0.18004113 -0.06426734       0.004
  -0.02834561  0.14730539 -0.06426738       0.004
  -0.11339410 -0.03273689  0.06426715       0.004
   0.11339426  0.03273680  0.06426737       0.004
   0.02834608 -0.11457066 -0.06426716       0.004
  -0.02834624  0.11457074 -0.06426736       0.004
  -0.08504540 -0.01636901  0.06426718       0.004
   0.08504556  0.01636893  0.06426735       0.004
   0.02834672 -0.08183602 -0.06426718       0.004
  -0.02834688  0.08183610 -0.06426734       0.004
  -0.05669669 -0.00000114  0.06426720       0.004
   0.05669685  0.00000106  0.06426733       0.004
   0.02834735 -0.04910137 -0.06426720       0.004
  -0.02834751  0.04910146 -0.06426732       0.004
  -0.02834799  0.01636673  0.06426722       0.004
   0.02834815 -0.01636681  0.06426730       0.004
   0.05669876  0.09820499  0.06426727       0.004
  -0.05669860 -0.09820507  0.06426726       0.004
   0.08504746  0.11457286  0.06426729       0.004
  -0.08504730 -0.11457294  0.06426723       0.004
   0.05669924  0.13093972 -0.06426728       0.004
  -0.05669940 -0.13093963 -0.06426725       0.004
   0.11339617  0.13094073  0.06426731       0.004
  -0.11339601 -0.13094082  0.06426721       0.004
   0.05669987  0.16367436 -0.06426730       0.004
  -0.05670003 -0.16367428 -0.06426723       0.004
   0.14174487  0.14730860  0.06426733       0.004
   0.14174233  0.01637003  0.06426741       0.004
   0.05670051  0.19640900 -0.06426732       0.004
  -0.05669431  0.13093751 -0.06426741       0.004
  -0.11339347 -0.00000224  0.06426713       0.004
   0.11339363  0.00000216  0.06426739       0.004
   0.05669479 -0.09820279 -0.06426714       0.004
  -0.05669495  0.09820287 -0.06426739       0.004
  -0.08504476  0.01636563  0.06426716       0.004
   0.08504492 -0.01636571  0.06426737       0.004
   0.05669542 -0.06546814 -0.06426716       0.004
  -0.05669558  0.06546823 -0.06426737       0.004
  -0.05669606  0.03273350  0.06426718       0.004
   0.05669622 -0.03273358  0.06426735       0.004
   0.08504810  0.14730750  0.06426727       0.004
  -0.08504794 -0.14730759  0.06426725       0.004
   0.11339680  0.16367538  0.06426729       0.004
  -0.11339664 -0.16367546  0.06426723       0.004
   0.08504858  0.18004223 -0.06426727       0.004
  -0.08504874 -0.18004215 -0.06426725       0.004
   0.14174551  0.18004325  0.06426732       0.004
   0.14174170 -0.01636461  0.06426743       0.004
   0.08504921  0.21277687 -0.06426729       0.004
  -0.08504302  0.11456964 -0.06426743       0.004
  -0.11339283  0.03273240  0.06426711       0.004
   0.11339299 -0.03273248  0.06426741       0.004
   0.08504349 -0.08183492 -0.06426712       0.004
  -0.08504365  0.08183500 -0.06426741       0.004
  -0.08504413  0.04910027  0.06426714       0.004
   0.08504429 -0.04910036  0.06426739       0.004
   0.11339744  0.19641002  0.06426727       0.004
  -0.11339728 -0.19641010  0.06426725       0.004
   0.14174614  0.21277789  0.06426730       0.004
   0.14174106 -0.04909925  0.06426745       0.004
   0.11339791  0.22914475 -0.06426727       0.004
  -0.11339172  0.09820177 -0.06426745       0.004
  -0.11339220  0.06546704  0.06426709       0.004
   0.11339236 -0.06546713  0.06426743       0.004
   0.14174678  0.24551253  0.06426728       0.004
 
 k-points in reciprocal lattice and weights: Kpoints                                 
   0.00000000  0.00000000  0.00000000       0.002
   0.10000000  0.00000000 -0.00000000       0.004
  -0.00000000  0.10000000 -0.00000000       0.004
   0.20000000  0.00000000 -0.00000000       0.004
  -0.00000000  0.20000000  0.00000000       0.004
   0.30000000 -0.00000000  0.00000000       0.004
  -0.00000000  0.30000000  0.00000000       0.004
   0.40000000 -0.00000000  0.00000000       0.004
  -0.00000000  0.40000000  0.00000000       0.004
   0.50000000 -0.00000000  0.00000000       0.002
   0.00000000  0.50000000 -0.00000000       0.002
   0.10000000  0.10000000  0.00000000       0.004
   0.20000000  0.10000000 -0.00000000       0.004
   0.10000000  0.20000000 -0.00000000       0.004
   0.30000000  0.10000000  0.00000000       0.004
   0.10000000  0.30000000 -0.00000000       0.004
   0.40000000  0.10000000  0.00000000       0.004
   0.10000000  0.40000000  0.00000000       0.004
   0.50000000  0.10000000 -0.00000000       0.004
   0.10000000  0.50000000 -0.00000000       0.004
  -0.40000000  0.10000000  0.00000000       0.004
   0.10000000 -0.40000000 -0.00000000       0.004
  -0.30000000  0.10000000 -0.00000000       0.004
   0.10000000 -0.30000000  0.00000000       0.004
  -0.20000000  0.10000000 -0.00000000       0.004
   0.10000000 -0.20000000 -0.00000000       0.004
  -0.10000000  0.10000000  0.00000000       0.004
   0.20000000  0.20000000 -0.00000000       0.004
   0.30000000  0.20000000 -0.00000000       0.004
   0.20000000  0.30000000  0.00000000       0.004
   0.40000000  0.20000000  0.00000000       0.004
   0.20000000  0.40000000 -0.00000000       0.004
   0.50000000  0.20000000  0.00000000       0.004
   0.20000000  0.50000000 -0.00000000       0.004
  -0.40000000  0.20000000 -0.00000000       0.004
   0.20000000 -0.40000000  0.00000000       0.004
  -0.30000000  0.20000000 -0.00000000       0.004
   0.20000000 -0.30000000  0.00000000       0.004
  -0.20000000  0.20000000 -0.00000000       0.004
   0.30000000  0.30000000 -0.00000000       0.004
   0.40000000  0.30000000  0.00000000       0.004
   0.30000000  0.40000000 -0.00000000       0.004
   0.50000000  0.30000000  0.00000000       0.004
   0.30000000  0.50000000  0.00000000       0.004
  -0.40000000  0.30000000  0.00000000       0.004
   0.30000000 -0.40000000  0.00000000       0.004
  -0.30000000  0.30000000  0.00000000       0.004
   0.40000000  0.40000000 -0.00000000       0.004
   0.50000000  0.40000000  0.00000000       0.004
   0.40000000  0.50000000 -0.00000000       0.004
  -0.40000000  0.40000000  0.00000000       0.004
   0.50000000  0.50000000  0.00000000       0.002
  -0.00000000  0.00000000  0.20000000       0.004
   0.10000000  0.00000000  0.20000000       0.004
  -0.10000000  0.00000000  0.20000000       0.004
  -0.00000000  0.10000000 -0.20000000       0.004
   0.00000000 -0.10000000 -0.20000000       0.004
   0.20000000 -0.00000000  0.20000000       0.004
  -0.20000000  0.00000000  0.20000000       0.004
  -0.00000000  0.20000000 -0.20000000       0.004
   0.00000000 -0.20000000 -0.20000000       0.004
   0.30000000 -0.00000000  0.20000000       0.004
  -0.30000000  0.00000000  0.20000000       0.004
   0.00000000  0.30000000 -0.20000000       0.004
   0.00000000 -0.30000000 -0.20000000       0.004
   0.40000000  0.00000000  0.20000000       0.004
  -0.40000000  0.00000000  0.20000000       0.004
  -0.00000000  0.40000000 -0.20000000       0.004
   0.00000000 -0.40000000 -0.20000000       0.004
   0.50000000 -0.00000000  0.20000000       0.004
  -0.00000000  0.50000000 -0.20000000       0.004
   0.10000000  0.10000000  0.20000000       0.004
  -0.10000000 -0.10000000  0.20000000       0.004
   0.20000000  0.10000000  0.20000000       0.004
  -0.20000000 -0.10000000  0.20000000       0.004
   0.10000000  0.20000000 -0.20000000       0.004
  -0.10000000 -0.20000000 -0.20000000       0.004
   0.30000000  0.10000000  0.20000000       0.004
  -0.30000000 -0.10000000  0.20000000       0.004
   0.10000000  0.30000000 -0.20000000       0.004
  -0.10000000 -0.30000000 -0.20000000       0.004
   0.40000000  0.10000000  0.20000000       0.004
  -0.40000000 -0.10000000  0.20000000       0.004
   0.10000000  0.40000000 -0.20000000       0.004
  -0.10000000 -0.40000000 -0.20000000       0.004
   0.50000000  0.10000000  0.20000000       0.004
   0.50000000 -0.10000000  0.20000000       0.004
   0.10000000  0.50000000 -0.20000000       0.004
  -0.10000000  0.50000000 -0.20000000       0.004
  -0.40000000  0.10000000  0.20000000       0.004
   0.40000000 -0.10000000  0.20000000       0.004
   0.10000000 -0.40000000 -0.20000000       0.004
  -0.10000000  0.40000000 -0.20000000       0.004
  -0.30000000  0.10000000  0.20000000       0.004
   0.30000000 -0.10000000  0.20000000       0.004
   0.10000000 -0.30000000 -0.20000000       0.004
  -0.10000000  0.30000000 -0.20000000       0.004
  -0.20000000  0.10000000  0.20000000       0.004
   0.20000000 -0.10000000  0.20000000       0.004
   0.10000000 -0.20000000 -0.20000000       0.004
  -0.10000000  0.20000000 -0.20000000       0.004
  -0.10000000  0.10000000  0.20000000       0.004
   0.10000000 -0.10000000  0.20000000       0.004
   0.20000000  0.20000000  0.20000000       0.004
  -0.20000000 -0.20000000  0.20000000       0.004
   0.30000000  0.20000000  0.20000000       0.004
  -0.30000000 -0.20000000  0.20000000       0.004
   0.20000000  0.30000000 -0.20000000       0.004
  -0.20000000 -0.30000000 -0.20000000       0.004
   0.40000000  0.20000000  0.20000000       0.004
  -0.40000000 -0.20000000  0.20000000       0.004
   0.20000000  0.40000000 -0.20000000       0.004
  -0.20000000 -0.40000000 -0.20000000       0.004
   0.50000000  0.20000000  0.20000000       0.004
   0.50000000 -0.20000000  0.20000000       0.004
   0.20000000  0.50000000 -0.20000000       0.004
  -0.20000000  0.50000000 -0.20000000       0.004
  -0.40000000  0.20000000  0.20000000       0.004
   0.40000000 -0.20000000  0.20000000       0.004
   0.20000000 -0.40000000 -0.20000000       0.004
  -0.20000000  0.40000000 -0.20000000       0.004
  -0.30000000  0.20000000  0.20000000       0.004
   0.30000000 -0.20000000  0.20000000       0.004
   0.20000000 -0.30000000 -0.20000000       0.004
  -0.20000000  0.30000000 -0.20000000       0.004
  -0.20000000  0.20000000  0.20000000       0.004
   0.20000000 -0.20000000  0.20000000       0.004
   0.30000000  0.30000000  0.20000000       0.004
  -0.30000000 -0.30000000  0.20000000       0.004
   0.40000000  0.30000000  0.20000000       0.004
  -0.40000000 -0.30000000  0.20000000       0.004
   0.30000000  0.40000000 -0.20000000       0.004
  -0.30000000 -0.40000000 -0.20000000       0.004
   0.50000000  0.30000000  0.20000000       0.004
   0.50000000 -0.30000000  0.20000000       0.004
   0.30000000  0.50000000 -0.20000000       0.004
  -0.30000000  0.50000000 -0.20000000       0.004
  -0.40000000  0.30000000  0.20000000       0.004
   0.40000000 -0.30000000  0.20000000       0.004
   0.30000000 -0.40000000 -0.20000000       0.004
  -0.30000000  0.40000000 -0.20000000       0.004
  -0.30000000  0.30000000  0.20000000       0.004
   0.30000000 -0.30000000  0.20000000       0.004
   0.40000000  0.40000000  0.20000000       0.004
  -0.40000000 -0.40000000  0.20000000       0.004
   0.50000000  0.40000000  0.20000000       0.004
   0.50000000 -0.40000000  0.20000000       0.004
   0.40000000  0.50000000 -0.20000000       0.004
  -0.40000000  0.50000000 -0.20000000       0.004
  -0.40000000  0.40000000  0.20000000       0.004
   0.40000000 -0.40000000  0.20000000       0.004
   0.50000000  0.50000000  0.20000000       0.004
   0.00000000 -0.00000000  0.40000000       0.004
   0.10000000 -0.00000000  0.40000000       0.004
  -0.10000000 -0.00000000  0.40000000       0.004
  -0.00000000  0.10000000 -0.40000000       0.004
   0.00000000 -0.10000000 -0.40000000       0.004
   0.20000000  0.00000000  0.40000000       0.004
  -0.20000000  0.00000000  0.40000000       0.004
  -0.00000000  0.20000000 -0.40000000       0.004
   0.00000000 -0.20000000 -0.40000000       0.004
   0.30000000 -0.00000000  0.40000000       0.004
  -0.30000000  0.00000000  0.40000000       0.004
  -0.00000000  0.30000000 -0.40000000       0.004
  -0.00000000 -0.30000000 -0.40000000       0.004
   0.40000000 -0.00000000  0.40000000       0.004
  -0.40000000  0.00000000  0.40000000       0.004
   0.00000000  0.40000000 -0.40000000       0.004
   0.00000000 -0.40000000 -0.40000000       0.004
   0.50000000 -0.00000000  0.40000000       0.004
   0.00000000  0.50000000 -0.40000000       0.004
   0.10000000  0.10000000  0.40000000       0.004
  -0.10000000 -0.10000000  0.40000000       0.004
   0.20000000  0.10000000  0.40000000       0.004
  -0.20000000 -0.10000000  0.40000000       0.004
   0.10000000  0.20000000 -0.40000000       0.004
  -0.10000000 -0.20000000 -0.40000000       0.004
   0.30000000  0.10000000  0.40000000       0.004
  -0.30000000 -0.10000000  0.40000000       0.004
   0.10000000  0.30000000 -0.40000000       0.004
  -0.10000000 -0.30000000 -0.40000000       0.004
   0.40000000  0.10000000  0.40000000       0.004
  -0.40000000 -0.10000000  0.40000000       0.004
   0.10000000  0.40000000 -0.40000000       0.004
  -0.10000000 -0.40000000 -0.40000000       0.004
   0.50000000  0.10000000  0.40000000       0.004
   0.50000000 -0.10000000  0.40000000       0.004
   0.10000000  0.50000000 -0.40000000       0.004
  -0.10000000  0.50000000 -0.40000000       0.004
  -0.40000000  0.10000000  0.40000000       0.004
   0.40000000 -0.10000000  0.40000000       0.004
   0.10000000 -0.40000000 -0.40000000       0.004
  -0.10000000  0.40000000 -0.40000000       0.004
  -0.30000000  0.10000000  0.40000000       0.004
   0.30000000 -0.10000000  0.40000000       0.004
   0.10000000 -0.30000000 -0.40000000       0.004
  -0.10000000  0.30000000 -0.40000000       0.004
  -0.20000000  0.10000000  0.40000000       0.004
   0.20000000 -0.10000000  0.40000000       0.004
   0.10000000 -0.20000000 -0.40000000       0.004
  -0.10000000  0.20000000 -0.40000000       0.004
  -0.10000000  0.10000000  0.40000000       0.004
   0.10000000 -0.10000000  0.40000000       0.004
   0.20000000  0.20000000  0.40000000       0.004
  -0.20000000 -0.20000000  0.40000000       0.004
   0.30000000  0.20000000  0.40000000       0.004
  -0.30000000 -0.20000000  0.40000000       0.004
   0.20000000  0.30000000 -0.40000000       0.004
  -0.20000000 -0.30000000 -0.40000000       0.004
   0.40000000  0.20000000  0.40000000       0.004
  -0.40000000 -0.20000000  0.40000000       0.004
   0.20000000  0.40000000 -0.40000000       0.004
  -0.20000000 -0.40000000 -0.40000000       0.004
   0.50000000  0.20000000  0.40000000       0.004
   0.50000000 -0.20000000  0.40000000       0.004
   0.20000000  0.50000000 -0.40000000       0.004
  -0.20000000  0.50000000 -0.40000000       0.004
  -0.40000000  0.20000000  0.40000000       0.004
   0.40000000 -0.20000000  0.40000000       0.004
   0.20000000 -0.40000000 -0.40000000       0.004
  -0.20000000  0.40000000 -0.40000000       0.004
  -0.30000000  0.20000000  0.40000000       0.004
   0.30000000 -0.20000000  0.40000000       0.004
   0.20000000 -0.30000000 -0.40000000       0.004
  -0.20000000  0.30000000 -0.40000000       0.004
  -0.20000000  0.20000000  0.40000000       0.004
   0.20000000 -0.20000000  0.40000000       0.004
   0.30000000  0.30000000  0.40000000       0.004
  -0.30000000 -0.30000000  0.40000000       0.004
   0.40000000  0.30000000  0.40000000       0.004
  -0.40000000 -0.30000000  0.40000000       0.004
   0.30000000  0.40000000 -0.40000000       0.004
  -0.30000000 -0.40000000 -0.40000000       0.004
   0.50000000  0.30000000  0.40000000       0.004
   0.50000000 -0.30000000  0.40000000       0.004
   0.30000000  0.50000000 -0.40000000       0.004
  -0.30000000  0.50000000 -0.40000000       0.004
  -0.40000000  0.30000000  0.40000000       0.004
   0.40000000 -0.30000000  0.40000000       0.004
   0.30000000 -0.40000000 -0.40000000       0.004
  -0.30000000  0.40000000 -0.40000000       0.004
  -0.30000000  0.30000000  0.40000000       0.004
   0.30000000 -0.30000000  0.40000000       0.004
   0.40000000  0.40000000  0.40000000       0.004
  -0.40000000 -0.40000000  0.40000000       0.004
   0.50000000  0.40000000  0.40000000       0.004
   0.50000000 -0.40000000  0.40000000       0.004
   0.40000000  0.50000000 -0.40000000       0.004
  -0.40000000  0.50000000 -0.40000000       0.004
  -0.40000000  0.40000000  0.40000000       0.004
   0.40000000 -0.40000000  0.40000000       0.004
   0.50000000  0.50000000  0.40000000       0.004
 
 position of ions in fractional coordinates (direct lattice) 
   0.99999965  0.99999996  0.00000024
   0.33333489  0.66666519  0.62771264
   0.66666528  0.33333483  0.37228709
   0.33333610  0.66666403  0.27854833
   0.66666402  0.33333599  0.72305841
 
 position of ions in cartesian coordinates  (Angst):
   1.76370833  3.05483322  0.00000124
  -0.00003588  2.03657622  3.90689026
   1.76373885  1.01826093  2.31711654
  -0.00002711  2.03657137  1.73368857
   1.76372987  1.01826578  4.50032030
 


--------------------------------------------------------------------------------------------------------


 k-point   1 :   0.0000 0.0000 0.0000  plane waves:    1835
 k-point   2 :   0.1000 0.0000-0.0000  plane waves:    1831
 k-point   3 :  -0.0000 0.1000-0.0000  plane waves:    1831
 k-point   4 :   0.2000 0.0000-0.0000  plane waves:    1823
 k-point   5 :  -0.0000 0.2000 0.0000  plane waves:    1823
 k-point   6 :   0.3000-0.0000 0.0000  plane waves:    1807
 k-point   7 :  -0.0000 0.3000 0.0000  plane waves:    1807
 k-point   8 :   0.4000-0.0000 0.0000  plane waves:    1804
 k-point   9 :  -0.0000 0.4000 0.0000  plane waves:    1804
 k-point  10 :   0.5000-0.0000 0.0000  plane waves:    1814
 k-point  11 :   0.0000 0.5000-0.0000  plane waves:    1814
 k-point  12 :   0.1000 0.1000 0.0000  plane waves:    1823
 k-point  13 :   0.2000 0.1000-0.0000  plane waves:    1817
 k-point  14 :   0.1000 0.2000-0.0000  plane waves:    1817
 k-point  15 :   0.3000 0.1000 0.0000  plane waves:    1805
 k-point  16 :   0.1000 0.3000-0.0000  plane waves:    1805
 k-point  17 :   0.4000 0.1000 0.0000  plane waves:    1800
 k-point  18 :   0.1000 0.4000 0.0000  plane waves:    1800
 k-point  19 :   0.5000 0.1000-0.0000  plane waves:    1800
 k-point  20 :   0.1000 0.5000-0.0000  plane waves:    1800
 k-point  21 :  -0.4000 0.1000 0.0000  plane waves:    1805
 k-point  22 :   0.1000-0.4000-0.0000  plane waves:    1805
 k-point  23 :  -0.3000 0.1000-0.0000  plane waves:    1817
 k-point  24 :   0.1000-0.3000 0.0000  plane waves:    1817
 k-point  25 :  -0.2000 0.1000-0.0000  plane waves:    1823
 k-point  26 :   0.1000-0.2000-0.0000  plane waves:    1823
 k-point  27 :  -0.1000 0.1000 0.0000  plane waves:    1831
 k-point  28 :   0.2000 0.2000-0.0000  plane waves:    1807
 k-point  29 :   0.3000 0.2000-0.0000  plane waves:    1798
 k-point  30 :   0.2000 0.3000 0.0000  plane waves:    1798
 k-point  31 :   0.4000 0.2000 0.0000  plane waves:    1800
 k-point  32 :   0.2000 0.4000-0.0000  plane waves:    1800
 k-point  33 :   0.5000 0.2000 0.0000  plane waves:    1800
 k-point  34 :   0.2000 0.5000-0.0000  plane waves:    1800
 k-point  35 :  -0.4000 0.2000-0.0000  plane waves:    1807
 k-point  36 :   0.2000-0.4000 0.0000  plane waves:    1807
 k-point  37 :  -0.3000 0.2000-0.0000  plane waves:    1817
 k-point  38 :   0.2000-0.3000 0.0000  plane waves:    1817
 k-point  39 :  -0.2000 0.2000-0.0000  plane waves:    1823
 k-point  40 :   0.3000 0.3000-0.0000  plane waves:    1812
 k-point  41 :   0.4000 0.3000 0.0000  plane waves:    1812
 k-point  42 :   0.3000 0.4000-0.0000  plane waves:    1812
 k-point  43 :   0.5000 0.3000 0.0000  plane waves:    1800
 k-point  44 :   0.3000 0.5000 0.0000  plane waves:    1800
 k-point  45 :  -0.4000 0.3000 0.0000  plane waves:    1805
 k-point  46 :   0.3000-0.4000 0.0000  plane waves:    1805
 k-point  47 :  -0.3000 0.3000 0.0000  plane waves:    1807
 k-point  48 :   0.4000 0.4000-0.0000  plane waves:    1800
[...]
      2     -14.3894      1.00000
      3     -13.5795      1.00000
      4     -13.5289      1.00000
      5     -10.9743      1.00000
      6     -10.2958      1.00000
      7      -3.7197      1.00000
      8      -3.5008      1.00000
      9      -3.3718      1.00000
     10      -3.2924      1.00000
     11      -3.2281      1.00000
     12      -3.0658      1.00000
     13      -3.0168      1.00000
     14      -2.8690      1.00000
     15      -2.6128      1.00000
     16      -2.5166      1.00000
     17      -1.4903      1.00000
     18      -0.8328      1.00000
     19       0.5098      1.00000
     20       0.7146      1.00000
     21       2.1328      1.00000
     22       2.4174      1.00000
     23       5.9603      0.00000
     24       7.6851      0.00000
     25       8.0124      0.00000
     26      10.2079      0.00000
     27      10.4742      0.00000
     28      10.9681      0.00000
     29      12.2049      0.00000
     30      12.4250      0.00000
     31      12.8170      0.00000
     32      14.6505      0.00000

 k-point   250 :      -0.4000    0.4000    0.4000
  band No.  band energies     occupation 
      1     -32.0984      1.00000
      2     -14.3580      1.00000
      3     -13.6439      1.00000
      4     -13.4353      1.00000
      5     -10.9469      1.00000
      6     -10.3899      1.00000
      7      -3.8289      1.00000
      8      -3.5336      1.00000
      9      -3.3798      1.00000
     10      -3.3077      1.00000
     11      -3.2456      1.00000
     12      -3.0816      1.00000
     13      -3.0553      1.00000
     14      -2.8592      1.00000
     15      -2.5727      1.00000
     16      -2.5724      1.00000
     17      -1.1467      1.00000
     18      -0.7070      1.00000
     19       0.5340      1.00000
     20       0.9449      1.00000
     21       2.2202      1.00000
     22       2.4683      1.00000
     23       5.7824      0.00000
     24       7.4850      0.00000
     25       8.0523      0.00000
     26      10.1729      0.00000
     27      10.2950      0.00000
     28      11.4720      0.00000
     29      12.0562      0.00000
     30      12.0573      0.00000
     31      12.6678      0.00000
     32      13.9595      0.00000

 k-point   251 :       0.4000   -0.4000    0.4000
  band No.  band energies     occupation 
      1     -32.0984      1.00000
      2     -14.3543      1.00000
      3     -13.6453      1.00000
      4     -13.4353      1.00000
      5     -11.0347      1.00000
      6     -10.2867      1.00000
      7      -3.7888      1.00000
      8      -3.5290      1.00000
      9      -3.3694      1.00000
     10      -3.3112      1.00000
     11      -3.2674      1.00000
     12      -3.0890      1.00000
     13      -3.0536      1.00000
     14      -2.8601      1.00000
     15      -2.5854      1.00000
     16      -2.5826      1.00000
     17      -1.4163      1.00000
     18      -0.7488      1.00000
     19       0.7507      1.00000
     20       0.9062      1.00000
     21       2.5368      1.00000
     22       2.5630      1.00000
     23       5.7981      0.00000
     24       7.3163      0.00000
     25       7.6350      0.00000
     26      10.2083      0.00000
     27      10.4339      0.00000
     28      11.3894      0.00000
     29      11.7070      0.00000
     30      11.7594      0.00000
     31      12.9044      0.00000
     32      14.3905      0.00000

 k-point   252 :       0.5000    0.5000    0.4000
  band No.  band energies     occupation 
      1     -32.0868      1.00000
      2     -14.4502      1.00000
      3     -13.5626      1.00000
      4     -13.4561      1.00000
      5     -11.0182      1.00000
      6     -10.2727      1.00000
      7      -3.7725      1.00000
      8      -3.4913      1.00000
      9      -3.3679      1.00000
     10      -3.2420      1.00000
     11      -3.2375      1.00000
     12      -3.0648      1.00000
     13      -3.0348      1.00000
     14      -2.9389      1.00000
     15      -2.5633      1.00000
     16      -2.5091      1.00000
     17      -1.4944      1.00000
     18      -0.9098      1.00000
     19       0.5031      1.00000
     20       0.7625      1.00000
     21       2.3862      1.00000
     22       2.4527      1.00000
     23       5.6432      0.00000
     24       7.5054      0.00000
     25       7.8008      0.00000
     26      10.2449      0.00000
     27      11.0812      0.00000
     28      11.4734      0.00000
     29      11.8585      0.00000
     30      12.3657      0.00000
     31      12.7122      0.00000
     32      14.4397      0.00000


--------------------------------------------------------------------------------------------------------


 soft charge-density along one line, spin component           1
         0         1         2         3         4         5         6         7         8         9
 total charge-density along one line
 
 soft charge-density along one line, spin component           2
         0         1         2         3         4         5         6         7         8         9
 total charge-density along one line
 
 pseudopotential strength for first ion, spin component:           1
-10.789  -3.667  -0.000  -0.000   0.000  -0.000   0.000   0.000
 -3.667  -1.338   0.000  -0.000  -0.000   0.000  -0.000  -0.000
 -0.000   0.000 -15.316   0.000   0.000 -15.028   0.000   0.000
 -0.000  -0.000   0.000 -15.302  -0.000   0.000 -15.015  -0.000
  0.000  -0.000   0.000  -0.000 -15.316   0.000  -0.000 -15.028
 -0.000   0.000 -15.028   0.000   0.000 -14.745   0.000   0.000
  0.000  -0.000   0.000 -15.015  -0.000   0.000 -14.732  -0.000
  0.000  -0.000   0.000  -0.000 -15.028   0.000  -0.000 -14.745
  0.000   0.000  -0.000  -0.000   0.000  -0.000  -0.000   0.000
  0.000   0.000  -0.000  -0.000  -0.000   0.000  -0.000  -0.000
  0.002   0.003  -0.000  -0.000   0.000  -0.000  -0.000   0.000
 -0.000  -0.000  -0.000   0.000  -0.000  -0.000   0.000   0.000
 -0.000  -0.000   0.000   0.000   0.000   0.000   0.000   0.000
  0.000   0.000  -0.000  -0.000   0.000  -0.000  -0.000   0.000
  0.000   0.000  -0.000  -0.000  -0.000  -0.000  -0.000  -0.000
  0.004   0.005  -0.000  -0.000   0.000  -0.000  -0.000   0.000
 -0.000  -0.000  -0.000   0.000  -0.000  -0.000   0.000  -0.000
 -0.000  -0.000   0.000   0.000   0.000   0.000   0.000   0.000
 pseudopotential strength for first ion, spin component:           2
-10.789  -3.668   0.000   0.000  -0.000   0.000   0.000  -0.000
 -3.668  -1.338  -0.000  -0.000   0.000  -0.000  -0.000   0.000
  0.000  -0.000 -15.316   0.000   0.000 -15.028   0.000   0.000
  0.000  -0.000   0.000 -15.302  -0.000   0.000 -15.015  -0.000
 -0.000   0.000   0.000  -0.000 -15.316   0.000  -0.000 -15.028
  0.000  -0.000 -15.028   0.000   0.000 -14.745   0.000   0.000
  0.000  -0.000   0.000 -15.015  -0.000   0.000 -14.732  -0.000
 -0.000   0.000   0.000  -0.000 -15.028   0.000  -0.000 -14.745
  0.000   0.000  -0.000   0.000   0.000  -0.000   0.000   0.000
 -0.000   0.000  -0.000   0.000   0.000   0.000   0.000   0.000
  0.002   0.003   0.000  -0.000  -0.000   0.000  -0.000  -0.000
 -0.000  -0.000   0.000  -0.000  -0.000   0.000  -0.000   0.000
 -0.000  -0.000   0.000  -0.000   0.000   0.000  -0.000   0.000
  0.000   0.000  -0.000   0.000   0.000  -0.000   0.000   0.000
  0.000   0.000  -0.000   0.000   0.000  -0.000   0.000   0.000
  0.004   0.005  -0.000  -0.000   0.000   0.000  -0.000  -0.000
 -0.000  -0.000   0.000  -0.000  -0.000   0.000  -0.000  -0.000
 -0.000  -0.000   0.000  -0.000   0.000   0.000  -0.000   0.000
 total augmentation occupancy for first ion, spin component:           1
  2.006   0.021  -0.000   0.002   0.000   0.000  -0.002  -0.000   0.000  -0.000  -0.015   0.000  -0.000  -0.000   0.000   0.003
  0.021   0.589   0.000   0.012  -0.000  -0.000  -0.011   0.000   0.000   0.000   0.107  -0.000  -0.000  -0.000  -0.000  -0.067
 -0.000   0.000  10.398   0.000   0.000  -9.333  -0.000  -0.000   0.000   0.051   0.000  -0.000  -0.041  -0.000  -0.027  -0.000
  0.002   0.012   0.000  11.710  -0.000  -0.000 -10.409   0.000  -0.000   0.000  -0.008   0.000  -0.000   0.000  -0.000   0.004
  0.000  -0.000   0.000  -0.000  10.398  -0.000   0.000  -9.333  -0.041  -0.000   0.000   0.051  -0.000   0.022   0.000  -0.000
  0.000  -0.000  -9.333  -0.000  -0.000  10.320   0.000   0.000  -0.000  -0.049  -0.000   0.000   0.039   0.000   0.027   0.000
 -0.002  -0.011  -0.000 -10.409   0.000   0.000  11.165  -0.000   0.000  -0.000   0.007  -0.000   0.000  -0.000   0.000  -0.004
 -0.000   0.000  -0.000   0.000  -9.333   0.000  -0.000  10.320   0.039   0.000  -0.000  -0.049   0.000  -0.021  -0.000   0.000
  0.000   0.000   0.000  -0.000  -0.041  -0.000   0.000   0.039   4.209  -0.000   0.000  -1.799   0.000  -2.263   0.000  -0.000
 -0.000   0.000   0.051   0.000  -0.000  -0.049  -0.000   0.000  -0.000   7.014   0.000   0.000  -1.799   0.000  -3.847  -0.000
 -0.015   0.107   0.000  -0.008   0.000  -0.000   0.007  -0.000   0.000   0.000   2.390  -0.000  -0.000  -0.000  -0.000  -1.295
  0.000  -0.000  -0.000   0.000   0.051   0.000  -0.000  -0.049  -1.799   0.000  -0.000   7.013  -0.000   0.982  -0.000   0.000
 -0.000  -0.000  -0.041  -0.000  -0.000   0.039   0.000   0.000   0.000  -1.799  -0.000  -0.000   4.209  -0.000   0.984   0.000
 -0.000  -0.000  -0.000   0.000   0.022   0.000  -0.000  -0.021  -2.263   0.000  -0.000   0.982  -0.000   1.219  -0.000   0.000
  0.000  -0.000  -0.027  -0.000   0.000   0.027   0.000  -0.000   0.000  -3.847  -0.000  -0.000   0.984  -0.000   2.114   0.000
  0.003  -0.067  -0.000   0.004  -0.000   0.000  -0.004   0.000  -0.000  -0.000  -1.295   0.000   0.000   0.000   0.000   0.703
  0.000   0.000   0.000  -0.000  -0.027  -0.000   0.000   0.027   0.984  -0.000   0.000  -3.847   0.000  -0.539   0.000  -0.000
  0.000   0.000   0.022   0.000   0.000  -0.021  -0.000  -0.000  -0.000   0.982   0.000   0.000  -2.263   0.000  -0.539  -0.000
 total augmentation occupancy for first ion, spin component:           2
  0.000   0.000  -0.000  -0.000   0.000   0.000   0.000  -0.000  -0.000   0.000   0.000  -0.000   0.000   0.000  -0.000  -0.000
  0.000  -0.000   0.000   0.000  -0.000  -0.000  -0.000   0.000   0.000   0.000   0.000   0.000  -0.000  -0.000  -0.000  -0.000
 -0.000   0.000  -0.003  -0.000   0.000   0.003   0.000  -0.000  -0.000   0.000  -0.000  -0.000  -0.000   0.000  -0.000   0.000
 -0.000   0.000  -0.000  -0.003   0.000   0.000   0.002  -0.000   0.000   0.000   0.000  -0.000  -0.000  -0.000  -0.000  -0.000
  0.000  -0.000   0.000   0.000  -0.004  -0.000  -0.000   0.003   0.000  -0.000   0.000   0.000  -0.000  -0.000   0.000  -0.000
  0.000  -0.000   0.003   0.000  -0.000  -0.002   0.000   0.000   0.000  -0.000   0.000  -0.000  -0.000  -0.000   0.000  -0.000
  0.000  -0.000   0.000   0.002  -0.000   0.000  -0.002  -0.000  -0.000  -0.000  -0.000   0.000   0.000   0.000   0.000   0.000
 -0.000   0.000  -0.000  -0.000   0.003   0.000  -0.000  -0.002  -0.000  -0.000  -0.000  -0.000   0.000   0.000   0.000   0.000
 -0.000   0.000  -0.000   0.000   0.000   0.000  -0.000  -0.000  -0.000   0.000   0.000   0.000  -0.000   0.000  -0.000  -0.000
  0.000   0.000   0.000   0.000  -0.000  -0.000  -0.000  -0.000   0.000  -0.000   0.000   0.000   0.000  -0.000   0.000  -0.000
  0.000   0.000  -0.000   0.000   0.000   0.000  -0.000  -0.000   0.000   0.000   0.000  -0.000  -0.000  -0.000  -0.000  -0.000
 -0.000   0.000  -0.000  -0.000   0.000  -0.000   0.000  -0.000   0.000   0.000  -0.000  -0.000  -0.000  -0.000  -0.000   0.000
  0.000  -0.000  -0.000  -0.000  -0.000  -0.000   0.000   0.000  -0.000   0.000  -0.000  -0.000  -0.000   0.000  -0.000   0.000
  0.000  -0.000   0.000  -0.000  -0.000  -0.000   0.000   0.000   0.000  -0.000  -0.000  -0.000   0.000  -0.000   0.000   0.000
 -0.000  -0.000  -0.000  -0.000   0.000   0.000   0.000   0.000  -0.000   0.000  -0.000  -0.000  -0.000   0.000  -0.000   0.000
 -0.000  -0.000   0.000  -0.000  -0.000  -0.000   0.000   0.000  -0.000  -0.000  -0.000   0.000   0.000   0.000   0.000   0.000
  0.000  -0.000   0.000   0.000  -0.000   0.000  -0.000   0.000  -0.000  -0.000   0.000   0.000   0.000   0.000   0.000  -0.000
 -0.000   0.000   0.000   0.000   0.000  -0.000  -0.000  -0.000   0.000  -0.000   0.000   0.000   0.000  -0.000   0.000  -0.000


------------------------ aborting loop because EDIFF is reached ----------------------------------------


 


 total charge     
 
# of ion       s       p       d       tot
------------------------------------------
    1        2.020   5.867   0.283   8.170
    2        0.520   0.532   9.844  10.895
    3        0.520   0.531   9.844  10.895
    4        1.247   2.396   0.000   3.643
    5        1.248   2.395   0.000   3.643
--------------------------------------------------
tot          5.555  11.721  19.970  37.247
 


 magnetization (x)
 
# of ion       s       p       d       tot
------------------------------------------
    1        0.000  -0.000   0.000  -0.000
    2        0.000   0.000   0.000   0.000
    3        0.000   0.000   0.000   0.000
    4       -0.000  -0.000   0.000  -0.000
    5       -0.000  -0.000   0.000  -0.000
--------------------------------------------------
tot          0.000  -0.000   0.000  -0.000
 
    CHARGE:  cpu time    0.1063: real time    0.1065
    FORLOC:  cpu time    0.0005: real time    0.0005
    FORNL :  cpu time    0.1741: real time    0.1747
    STRESS:  cpu time   12.7779: real time   12.8005
    FORCOR:  cpu time    0.0151: real time    0.0153
    FORHAR:  cpu time    0.0018: real time    0.0019
    MIXING:  cpu time    0.0005: real time    0.0005
    OFIELD:  cpu time    0.0001: real time    0.0001

  FORCE on cell =-STRESS in cart. coord.  units (eV):
  Direction    XX          YY          ZZ          XY          YZ          ZX
  --------------------------------------------------------------------------------------
  Alpha Z   324.31492   324.31492   324.31492
  Ewald   -1063.96123 -1063.95747 -1303.80905     0.00291    -0.00118     0.00209
  Hartree   566.78657   566.78639   278.50572    -0.00034    -0.00032     0.00055
  E(xc)    -244.29419  -244.29426  -244.29899    -0.00007     0.00004    -0.00006
  Local     -19.92012   -19.92281   507.65056    -0.00179     0.00077    -0.00140
  n-local  -133.37196  -133.37170  -133.62308     0.00024    -0.00001     0.00002
  augment    96.50814    96.50574    95.49784    -0.00208    -0.00000     0.00001
  Kinetic   473.94478   473.94674   475.70838     0.00168     0.00053    -0.00091
  Fock        0.00000     0.00000     0.00000     0.00000     0.00000     0.00000
  -------------------------------------------------------------------------------------
  Total       0.00691     0.00755    -0.05370     0.00054    -0.00018     0.00031
  in kB       0.16501     0.18025    -1.28281     0.01289    -0.00428     0.00742
  external pressure =       -0.31 kB  Pullay stress =        0.00 kB


 VOLUME and BASIS-vectors are now :
 -----------------------------------------------------------------------------
  energy-cutoff  :      520.00
  volume of cell :       67.07
      direct lattice vectors                 reciprocal lattice vectors
     3.527537600 -0.000068479 -0.000004402     0.283487045  0.163678720  0.000000224
    -1.763828104  3.054901805  0.000004174     0.000006355  0.327346433 -0.000000198
    -0.000007101  0.000003763  6.224008702     0.000000200 -0.000000104  0.160668156

  length of vectors
     3.527537600  3.527536622  6.224008702     0.327346342  0.327346433  0.160668156


 FORCES acting on ions
    electron-ion (+dipol)            ewald-force                    non-local-force                 convergence-correction
 -----------------------------------------------------------------------------------------------
   -.108E-03 -.451E-04 -.813E+00   0.111E-03 0.416E-04 0.745E+00   0.290E-05 0.547E-05 0.675E-01   -.219E-05 0.212E-05 0.102E-03
   -.138E-01 0.821E-02 -.273E+03   0.133E-01 -.790E-02 0.274E+03   0.632E-03 -.379E-03 -.148E+01   0.656E-05 -.177E-05 -.397E-02
   0.140E-01 -.825E-02 0.272E+03   -.135E-01 0.793E-02 -.274E+03   -.653E-03 0.393E-03 0.150E+01   -.862E-05 0.425E-05 0.410E-02
   -.547E-02 0.329E-02 0.198E+03   0.583E-02 -.351E-02 -.205E+03   -.256E-03 0.153E-03 0.739E+01   -.145E-04 0.804E-05 0.552E-02
   0.541E-02 -.322E-02 -.196E+03   -.577E-02 0.343E-02 0.204E+03   0.247E-03 -.154E-03 -.735E+01   0.180E-04 -.107E-04 -.552E-02
 -----------------------------------------------------------------------------------------------
   0.589E-05 -.400E-05 -.128E+00   -.260E-14 -.295E-14 0.000E+00   -.269E-04 0.188E-04 0.125E+00   -.766E-06 0.194E-05 0.229E-03
 
 
 POSITION                                       TOTAL-FORCE (eV/Angst)
 -----------------------------------------------------------------------------------
      1.76371      3.05483      0.00000         0.000007      0.000001     -0.000279
     -0.00004      2.03658      3.90689         0.000113     -0.000068      0.024225
      1.76374      1.01826      2.31712        -0.000125      0.000074      0.012817
     -0.00003      2.03657      1.73369         0.000091     -0.000055     -0.070147
      1.76373      1.01827      4.50032        -0.000085      0.000048      0.033385
 -----------------------------------------------------------------------------------
    total drift:                               -0.000022      0.000017     -0.002159


--------------------------------------------------------------------------------------------------------



  FREE ENERGIE OF THE ION-ELECTRON SYSTEM (eV)
  ---------------------------------------------------
  free  energy   TOTEN  =       -70.05009107 eV

  energy  without entropy=      -70.05009107  energy(sigma->0) =      -70.05009107
 


--------------------------------------------------------------------------------------------------------


    POTLOK:  cpu time    0.9632: real time    0.9642


--------------------------------------------------------------------------------------------------------


     LOOP+:  cpu time  173.0011: real time  173.4939
    4ORBIT:  cpu time    0.0000: real time    0.0000
 


 total charge     
 
# of ion       s       p       d       tot
------------------------------------------
    1        2.020   5.867   0.283   8.170
    2        0.520   0.532   9.844  10.895
    3        0.520   0.531   9.844  10.895
    4        1.247   2.396   0.000   3.643
    5        1.248   2.395   0.000   3.643
--------------------------------------------------
tot          5.555  11.721  19.970  37.247
 


 magnetization (x)
 
# of ion       s       p       d       tot
------------------------------------------
    1        0.000  -0.000   0.000  -0.000
    2        0.000   0.000   0.000   0.000
    3        0.000   0.000   0.000   0.000
    4       -0.000  -0.000   0.000  -0.000
    5       -0.000  -0.000   0.000  -0.000
--------------------------------------------------
tot          0.000  -0.000   0.000  -0.000
 

 total amount of memory used by VASP MPI-rank0    91015. kBytes
=======================================================================

   base      :      30000. kBytes
   nonl-proj :      50550. kBytes
   fftplans  :        475. kBytes
   grid      :       1929. kBytes
   one-center:         62. kBytes
   wavefun   :       7999. kBytes
 
  
  
 General timing and accounting informations for this job:
 ========================================================
  
                  Total CPU time used (sec):      180.795
                            User time (sec):      174.983
                          System time (sec):        5.812
                         Elapsed time (sec):      181.708
  
                   Maximum memory used (kb):      143544.
                   Average memory used (kb):           0.
  
                          Minor page faults:        37337
                          Major page faults:            0
                 Voluntary context switches:          646
