 vasp.6.1.2 22Jul20 (build Apr 14 2021 21:39:43) complex                        
  
 executed on             LinuxIFC date 2022.07.09  08:06:52
 running on   64 total cores
 distrk:  each k-point on   64 cores,    1 groups
 distr:  one band on NCORE=   4 cores,   16 groups


--------------------------------------------------------------------------------------------------------


 INCAR:
 POTCAR:    PAW_PBE Zn 06Sep2000                  
 POTCAR:    PAW_PBE Ca_sv 06Sep2000               
 POTCAR:    PAW_PBE N 08Apr2002                   
 POTCAR:    PAW_PBE Zn 06Sep2000                  
   SHA256 =  501fddbd8274dd8e9725d4f3de27861d7f1e553a7e18441bc79fed8f346e7f23 Zn/POTCAR             
   COPYR  = (c) Copyright 06Sep2000 Georg Kresse                                                    
   COPYR  = This file is part of the software VASP. Any use, copying, and all other rights are regul
   COPYR  = If you do not have a valid VASP license, you may not use, copy or distribute this file. 
   VRHFIN =Zn: d10 p2                                                                               
   LEXCH  = PE                                                                                      
   EATOM  =  1748.8345 eV,  128.5357 Ry                                                             
                                                                                                    
   TITEL  = PAW_PBE Zn 06Sep2000                                                                    
   LULTRA =        F    use ultrasoft PP ?                                                          
   IUNSCR =        1    unscreen: 0-lin 1-nonlin 2-no                                               
   RPACOR =    2.000    partial core radius                                                         
   POMASS =   65.390; ZVAL   =   12.000    mass and valenz                                          
   RCORE  =    2.300    outmost cutoff radius                                                       
   RWIGS  =    2.400; RWIGS  =    1.270    wigner-seitz radius (au A)                               
   ENMAX  =  276.723; ENMIN  =  207.542 eV                                                          
   RCLOC  =    1.828    cutoff for local pot                                                        
   LCOR   =        T    correct aug charges                                                         
   LPAW   =        T    paw PP                                                                      
   EAUG   =  575.892                                                                                
   DEXC   =    0.000                                                                                
   RMAX   =    2.347    core radius for proj-oper                                                   
   RAUG   =    1.300    factor for augmentation sphere                                              
   RDEP   =    2.324    radius for radial grids                                                     
   RDEPT  =    1.788    core radius for aug-charge                                                  
                                                                                                    
   Atomic configuration                                                                             
    9 entries                                                                                       
     n  l   j            E        occ.                                                              
     1  0  0.50     -9524.6913   2.0000                                                             
     2  0  0.50     -1158.1882   2.0000                                                             
     2  1  1.50     -1003.8506   6.0000                                                             
     3  0  0.50      -129.2194   2.0000                                                             
     3  1  1.50       -83.3890   6.0000                                                             
     3  2  2.50       -10.1410  10.0000                                                             
     4  0  0.50        -5.9785   2.0000                                                             
     4  1  0.50        -4.0817   0.0000                                                             
     4  3  2.50        -1.3606   0.0000                                                             
   Description                                                                                      
     l       E           TYP  RCUT    TYP  RCUT                                                     
     2    -10.1410010     23  2.300                                                                 
     2    -11.5015836     23  2.300                                                                 
     0     -5.9785163     23  2.300                                                                 
     0      1.1858015     23  2.300                                                                 
     1     -2.7211652     23  2.300                                                                 
     1     13.2444212     23  2.300                                                                 
  local pseudopotential read in
  partial core-charges read in
  partial kinetic energy density read in
  atomic valenz-charges read in
  non local Contribution for L=           2  read in
    real space projection operators read in
  non local Contribution for L=           2  read in
    real space projection operators read in
  non local Contribution for L=           0  read in
    real space projection operators read in
  non local Contribution for L=           0  read in
    real space projection operators read in
  non local Contribution for L=           1  read in
    real space projection operators read in
  non local Contribution for L=           1  read in
    real space projection operators read in
    PAW grid and wavefunctions read in
 
   number of l-projection  operators is LMAX  =           6
   number of lm-projection operators is LMMAX =          18
 
 POTCAR:    PAW_PBE Ca_sv 06Sep2000               
   SHA256 =  a47365830e737f14e0e6c5cf1ed81b94e081eecf0a33df105380881bc9da05d5 Ca_sv/POTCAR          
   COPYR  = (c) Copyright 06Sep2000 Georg Kresse                                                    
   COPYR  = This file is part of the software VASP. Any use, copying, and all other rights are regul
   COPYR  = If you do not have a valid VASP license, you may not use, copy or distribute this file. 
   VRHFIN =Ca: 3s3p4s                                                                               
   LEXCH  = PE                                                                                      
   EATOM  =  1006.0909 eV,   73.9456 Ry                                                             
                                                                                                    
   TITEL  = PAW_PBE Ca_sv 06Sep2000                                                                 
   LULTRA =        F    use ultrasoft PP ?                                                          
   IUNSCR =        1    unscreen: 0-lin 1-nonlin 2-no                                               
   RPACOR =    2.000    partial core radius                                                         
   POMASS =   40.078; ZVAL   =   10.000    mass and valenz                                          
   RCORE  =    2.300    outmost cutoff radius                                                       
   RWIGS  =    2.500; RWIGS  =    1.323    wigner-seitz radius (au A)                               
   ENMAX  =  266.622; ENMIN  =  199.967 eV                                                          
   RCLOC  =    1.808    cutoff for local pot                                                        
   LCOR   =        T    correct aug charges                                                         
   LPAW   =        T    paw PP                                                                      
   EAUG   =  420.852                                                                                
   RMAX   =    2.359    core radius for proj-oper                                                   
   RAUG   =    1.300    factor for augmentation sphere                                              
   RDEP   =    2.392    radius for radial grids                                                     
   RDEPT  =    1.987    core radius for aug-charge                                                  
                                                                                                    
   Atomic configuration                                                                             
    7 entries                                                                                       
     n  l   j            E        occ.                                                              
     1  0  0.50     -3949.1705   2.0000                                                             
     2  0  0.50      -414.3434   2.0000                                                             
     2  1  1.50      -334.7047   6.0000                                                             
     3  0  0.50       -47.0896   2.0000                                                             
     4  0  0.50        -3.7663   2.0000                                                             
     3  1  1.50       -28.0061   6.0000                                                             
     3  2  1.50        -4.0817   0.0000                                                             
   Description                                                                                      
     l       E           TYP  RCUT    TYP  RCUT                                                     
     0    -47.0896403     23  2.300                                                                 
     0     -3.7663320     23  2.300                                                                 
     1    -28.0060855     23  2.300                                                                 
     1      6.8029130     23  2.300                                                                 
     2     -4.0817478     23  2.300                                                                 
     2      0.4464412     23  2.300                                                                 
  local pseudopotential read in
  partial core-charges read in
  partial kinetic energy density read in
  atomic valenz-charges read in
  non local Contribution for L=           0  read in
    real space projection operators read in
  non local Contribution for L=           0  read in
    real space projection operators read in
  non local Contribution for L=           1  read in
    real space projection operators read in
  non local Contribution for L=           1  read in
    real space projection operators read in
  non local Contribution for L=           2  read in
    real space projection operators read in
  non local Contribution for L=           2  read in
    real space projection operators read in
    PAW grid and wavefunctions read in
 
   number of l-projection  operators is LMAX  =           6
   number of lm-projection operators is LMMAX =          18
 
 POTCAR:    PAW_PBE N 08Apr2002                   
   SHA256 =  e053789ff3a61a86a1b75d8a110fcc91f86041011e7b0817c7c99e4e8a6349d7 N/POTCAR              
   COPYR  = (c) Copyright 08Apr2002 Georg Kresse                                                    
   COPYR  = This file is part of the software VASP. Any use, copying, and all other rights are regul
   COPYR  = If you do not have a valid VASP license, you may not use, copy or distribute this file. 
   VRHFIN =N: s2p3                                                                                  
   LEXCH  = PE                                                                                      
   EATOM  =   264.5486 eV,   19.4438 Ry                                                             
                                                                                                    
   TITEL  = PAW_PBE N 08Apr2002                                                                     
   LULTRA =        F    use ultrasoft PP ?                                                          
   IUNSCR =        1    unscreen: 0-lin 1-nonlin 2-no                                               
   RPACOR =    1.200    partial core radius                                                         
   POMASS =   14.001; ZVAL   =    5.000    mass and valenz                                          
   RCORE  =    1.500    outmost cutoff radius                                                       
   RWIGS  =    1.400; RWIGS  =    0.741    wigner-seitz radius (au A)                               
   ENMAX  =  400.000; ENMIN  =  300.000 eV                                                          
   ICORE  =        2    local potential                                                             
   LCOR   =        T    correct aug charges                                                         
   LPAW   =        T    paw PP                                                                      
   EAUG   =  627.112                                                                                
   DEXC   =    0.000                                                                                
   RMAX   =    1.529    core radius for proj-oper                                                   
   RAUG   =    1.300    factor for augmentation sphere                                              
   RDEP   =    1.514    radius for radial grids                                                     
   RDEPT  =    1.338    core radius for aug-charge                                                  
                                                                                                    
   Atomic configuration                                                                             
    4 entries                                                                                       
     n  l   j            E        occ.                                                              
     1  0  0.50      -384.7179   2.0000                                                             
     2  0  0.50       -18.5828   2.0000                                                             
     2  1  0.50        -7.0898   3.0000                                                             
     3  2  1.50        -6.8029   0.0000                                                             
   Description                                                                                      
     l       E           TYP  RCUT    TYP  RCUT                                                     
     0    -18.5828119     23  1.200                                                                 
     0    -13.5018863     23  1.200                                                                 
     1     -7.0897853     23  1.500                                                                 
     1      9.5240782     23  1.500                                                                 
     2     -6.8029130      7  1.500                                                                 
  local pseudopotential read in
  partial core-charges read in
  partial kinetic energy density read in
  atomic valenz-charges read in
  non local Contribution for L=           0  read in
    real space projection operators read in
  non local Contribution for L=           0  read in
    real space projection operators read in
  non local Contribution for L=           1  read in
    real space projection operators read in
  non local Contribution for L=           1  read in
    real space projection operators read in
    PAW grid and wavefunctions read in
 
   number of l-projection  operators is LMAX  =           4
   number of lm-projection operators is LMMAX =           8
 
  PAW_PBE Zn 06Sep2000                  :
 energy of atom  1       EATOM=-1748.8345
 kinetic energy error for atom=    0.0029 (will be added to EATOM!!)
  PAW_PBE Ca_sv 06Sep2000               :
 energy of atom  2       EATOM=-1006.0909
 kinetic energy error for atom=    0.0022 (will be added to EATOM!!)
  PAW_PBE N 08Apr2002                   :
 energy of atom  3       EATOM= -264.5486
 kinetic energy error for atom=    0.0125 (will be added to EATOM!!)
 
 
 POSCAR: generated by phonopy
  positions in direct lattice
  No initial velocities read in

 METAGGA = SCAN     LMAXTAU =  6    LMIXTAU =  F

 exchange correlation table for  LEXCH =        8
   RHO(1)=    0.500       N(1)  =     2000
   RHO(2)=  100.500       N(2)  =     4000
 


--------------------------------------------------------------------------------------------------------


 ion  position               nearest neighbor table
   1  1.000  0.000  0.000-   7 1.82   8 1.82
   2  0.500  0.500  0.500-  10 1.82   9 1.82
   3  0.999  1.000  0.337-   7 2.39
   4  0.000  0.000  0.662-   8 2.40
   5  0.500  0.500  0.838-   9 2.40
   6  0.500  0.500  0.162-  10 2.40
   7  1.000  0.000  0.146-   1 1.82   3 2.39
   8  1.000  0.000  0.854-   1 1.82   4 2.40
   9  0.500  0.500  0.646-   2 1.82   5 2.40
  10  0.500  0.500  0.354-   2 1.82   6 2.40
 

IMPORTANT INFORMATION: All symmetrisations will be switched off!
NOSYMM: (Re-)initialisation of all symmetry stuff for point group C_1.


----------------------------------------------------------------------------------------

                                     Primitive cell                                     

  volume of cell :     159.5304

  direct lattice vectors                    reciprocal lattice vectors
     3.574043013  0.000000006 -0.000000042     0.279795178 -0.000000001  0.000000003
     0.000000007  3.574042987 -0.000000007    -0.000000001  0.279795180  0.000000001
    -0.000000145 -0.000000025 12.488892887     0.000000001  0.000000000  0.080071149

  length of vectors
     3.574043013  3.574042987 12.488892887     0.279795178  0.279795180  0.080071149

  position of ions in fractional coordinates (direct lattice)
     0.999999985  0.000000001  0.000000143
     0.499999986  0.499999998  0.499999908
     0.999230318  1.000000000  0.336797861
     0.000000119  0.000000013  0.662432335
     0.500000146  0.500000005  0.837567650
     0.500000111  0.499999986  0.162432349
     0.999999854  0.000000019  0.145775347
     0.999999906  0.000000003  0.854224458
     0.499999894  0.499999999  0.645775510
     0.499999872  0.499999976  0.354224629

  ion indices of the primitive-cell ions
   primitive index   ion index
                 1           1
                 2           2
                 3           3
                 4           4
                 5           5
                 6           6
                 7           7
                 8           8
                 9           9
                10          10

----------------------------------------------------------------------------------------

 
 
 KPOINTS: Kpoints                                 

Automatic generation of k-mesh.
 generate k-points for:    9    9    3
Space group operators:
 irot       det(A)        alpha          n_x          n_y          n_z        tau_x        tau_y        tau_z
    1     1.000000     0.000000     1.000000     0.000000     0.000000     0.000000     0.000000     0.000000
 
 Subroutine IBZKPT returns following result:
 ===========================================
 
 Found    122 irreducible k-points:
 
 Following reciprocal coordinates:
            Coordinates               Weight
  0.000000  0.000000  0.000000      1.000000
  0.111111  0.000000 -0.000000      2.000000
 -0.000000  0.111111  0.000000      2.000000
  0.222222  0.000000 -0.000000      2.000000
 -0.000000  0.222222  0.000000      2.000000
  0.333333  0.000000  0.000000      2.000000
 -0.000000  0.333333  0.000000      2.000000
  0.444444  0.000000  0.000000      2.000000
 -0.000000  0.444444  0.000000      2.000000
  0.111111  0.111111 -0.000000      2.000000
 -0.111111  0.111111  0.000000      2.000000
  0.222222  0.111111 -0.000000      2.000000
 -0.111111  0.222222  0.000000      2.000000
 -0.222222  0.111111  0.000000      2.000000
  0.111111  0.222222 -0.000000      2.000000
  0.333333  0.111111  0.000000      2.000000
 -0.111111  0.333333  0.000000      2.000000
 -0.333333  0.111111 -0.000000      2.000000
  0.111111  0.333333 -0.000000      2.000000
  0.444444  0.111111  0.000000      2.000000
 -0.111111  0.444444  0.000000      2.000000
 -0.444444  0.111111 -0.000000      2.000000
  0.111111  0.444444 -0.000000      2.000000
  0.222222  0.222222 -0.000000      2.000000
 -0.222222  0.222222  0.000000      2.000000
  0.333333  0.222222  0.000000      2.000000
 -0.222222  0.333333  0.000000      2.000000
 -0.333333  0.222222 -0.000000      2.000000
  0.222222  0.333333 -0.000000      2.000000
  0.444444  0.222222  0.000000      2.000000
 -0.222222  0.444444  0.000000      2.000000
 -0.444444  0.222222 -0.000000      2.000000
  0.222222  0.444444 -0.000000      2.000000
  0.333333  0.333333  0.000000      2.000000
 -0.333333  0.333333 -0.000000      2.000000
  0.444444  0.333333  0.000000      2.000000
 -0.333333  0.444444 -0.000000      2.000000
 -0.444444  0.333333 -0.000000      2.000000
  0.333333  0.444444  0.000000      2.000000
  0.444444  0.444444  0.000000      2.000000
 -0.444444  0.444444  0.000000      2.000000
  0.000000 -0.000000  0.333333      2.000000
  0.111111  0.000000  0.333333      2.000000
  0.000000  0.111111  0.333333      2.000000
 -0.111111 -0.000000  0.333333      2.000000
  0.000000 -0.111111  0.333333      2.000000
  0.222222  0.000000  0.333333      2.000000
 -0.000000  0.222222  0.333333      2.000000
 -0.222222 -0.000000  0.333333      2.000000
  0.000000 -0.222222  0.333333      2.000000
  0.333333  0.000000  0.333333      2.000000
 -0.000000  0.333333  0.333333      2.000000
 -0.333333 -0.000000  0.333333      2.000000
  0.000000 -0.333333  0.333333      2.000000
  0.444444  0.000000  0.333333      2.000000
 -0.000000  0.444444  0.333333      2.000000
 -0.444444 -0.000000  0.333333      2.000000
  0.000000 -0.444444  0.333333      2.000000
  0.111111  0.111111  0.333333      2.000000
 -0.111111  0.111111  0.333333      2.000000
 -0.111111 -0.111111  0.333333      2.000000
  0.111111 -0.111111  0.333333      2.000000
  0.222222  0.111111  0.333333      2.000000
 -0.111111  0.222222  0.333333      2.000000
 -0.222222 -0.111111  0.333333      2.000000
  0.111111 -0.222222  0.333333      2.000000
 -0.222222  0.111111 -0.333333      2.000000
  0.111111  0.222222 -0.333333      2.000000
  0.222222 -0.111111 -0.333333      2.000000
 -0.111111 -0.222222 -0.333333      2.000000
  0.333333  0.111111  0.333333      2.000000
 -0.111111  0.333333  0.333333      2.000000
 -0.333333 -0.111111  0.333333      2.000000
  0.111111 -0.333333  0.333333      2.000000
 -0.333333  0.111111 -0.333333      2.000000
  0.111111  0.333333 -0.333333      2.000000
  0.333333 -0.111111 -0.333333      2.000000
 -0.111111 -0.333333 -0.333333      2.000000
  0.444444  0.111111  0.333333      2.000000
 -0.111111  0.444444  0.333333      2.000000
 -0.444444 -0.111111  0.333333      2.000000
  0.111111 -0.444444  0.333333      2.000000
 -0.444444  0.111111 -0.333333      2.000000
  0.111111  0.444444 -0.333333      2.000000
  0.444444 -0.111111 -0.333333      2.000000
 -0.111111 -0.444444 -0.333333      2.000000
  0.222222  0.222222  0.333333      2.000000
 -0.222222  0.222222  0.333333      2.000000
 -0.222222 -0.222222  0.333333      2.000000
  0.222222 -0.222222  0.333333      2.000000
  0.333333  0.222222  0.333333      2.000000
 -0.222222  0.333333  0.333333      2.000000
 -0.333333 -0.222222  0.333333      2.000000
  0.222222 -0.333333  0.333333      2.000000
 -0.333333  0.222222 -0.333333      2.000000
  0.222222  0.333333 -0.333333      2.000000
  0.333333 -0.222222 -0.333333      2.000000
 -0.222222 -0.333333 -0.333333      2.000000
  0.444444  0.222222  0.333333      2.000000
 -0.222222  0.444444  0.333333      2.000000
 -0.444444 -0.222222  0.333333      2.000000
  0.222222 -0.444444  0.333333      2.000000
 -0.444444  0.222222 -0.333333      2.000000
  0.222222  0.444444 -0.333333      2.000000
  0.444444 -0.222222 -0.333333      2.000000
 -0.222222 -0.444444 -0.333333      2.000000
  0.333333  0.333333  0.333333      2.000000
 -0.333333  0.333333  0.333333      2.000000
 -0.333333 -0.333333  0.333333      2.000000
  0.333333 -0.333333  0.333333      2.000000
  0.444444  0.333333  0.333333      2.000000
 -0.333333  0.444444  0.333333      2.000000
 -0.444444 -0.333333  0.333333      2.000000
  0.333333 -0.444444  0.333333      2.000000
 -0.444444  0.333333 -0.333333      2.000000
  0.333333  0.444444 -0.333333      2.000000
  0.444444 -0.333333 -0.333333      2.000000
 -0.333333 -0.444444 -0.333333      2.000000
  0.444444  0.444444  0.333333      2.000000
 -0.444444  0.444444  0.333333      2.000000
 -0.444444 -0.444444  0.333333      2.000000
  0.444444 -0.444444  0.333333      2.000000
 
 Following cartesian coordinates:
            Coordinates               Weight
  0.000000  0.000000  0.000000      1.000000
  0.031088 -0.000000  0.000000      2.000000
 -0.000000  0.031088  0.000000      2.000000
  0.062177 -0.000000  0.000000      2.000000
 -0.000000  0.062177  0.000000      2.000000
  0.093265 -0.000000  0.000000      2.000000
 -0.000000  0.093265  0.000000      2.000000
  0.124353 -0.000000  0.000000      2.000000
 -0.000000  0.124353  0.000000      2.000000
  0.031088  0.031088  0.000000      2.000000
 -0.031088  0.031088 -0.000000      2.000000
  0.062177  0.031088  0.000000      2.000000
 -0.031088  0.062177 -0.000000      2.000000
 -0.062177  0.031088 -0.000000      2.000000
  0.031088  0.062177  0.000000      2.000000
  0.093265  0.031088  0.000000      2.000000
 -0.031088  0.093265 -0.000000      2.000000
 -0.093265  0.031088 -0.000000      2.000000
  0.031088  0.093265  0.000000      2.000000
  0.124353  0.031088  0.000000      2.000000
 -0.031088  0.124353 -0.000000      2.000000
 -0.124353  0.031088 -0.000000      2.000000
  0.031088  0.124353  0.000000      2.000000
  0.062177  0.062177  0.000000      2.000000
 -0.062177  0.062177 -0.000000      2.000000
  0.093265  0.062177  0.000000      2.000000
 -0.062177  0.093265 -0.000000      2.000000
 -0.093265  0.062177 -0.000000      2.000000
  0.062177  0.093265  0.000000      2.000000
  0.124353  0.062177  0.000000      2.000000
 -0.062177  0.124353 -0.000000      2.000000
 -0.124353  0.062177 -0.000000      2.000000
  0.062177  0.124353  0.000000      2.000000
  0.093265  0.093265  0.000000      2.000000
 -0.093265  0.093265 -0.000000      2.000000
  0.124353  0.093265  0.000000      2.000000
 -0.093265  0.124353 -0.000000      2.000000
 -0.124353  0.093265 -0.000000      2.000000
  0.093265  0.124353  0.000000      2.000000
  0.124353  0.124353  0.000000      2.000000
 -0.124353  0.124353 -0.000000      2.000000
  0.000000  0.000000  0.026690      2.000000
  0.031088 -0.000000  0.026690      2.000000
  0.000000  0.031088  0.026690      2.000000
 -0.031088  0.000000  0.026690      2.000000
  0.000000 -0.031088  0.026690      2.000000
  0.062177 -0.000000  0.026690      2.000000
  0.000000  0.062177  0.026690      2.000000
 -0.062177  0.000000  0.026690      2.000000
  0.000000 -0.062177  0.026690      2.000000
  0.093265 -0.000000  0.026690      2.000000
  0.000000  0.093265  0.026690      2.000000
 -0.093265  0.000000  0.026690      2.000000
  0.000000 -0.093265  0.026690      2.000000
  0.124353 -0.000000  0.026690      2.000000
  0.000000  0.124353  0.026690      2.000000
 -0.124353  0.000000  0.026690      2.000000
  0.000000 -0.124353  0.026690      2.000000
  0.031088  0.031088  0.026690      2.000000
 -0.031088  0.031088  0.026690      2.000000
 -0.031088 -0.031088  0.026690      2.000000
  0.031088 -0.031088  0.026690      2.000000
  0.062177  0.031088  0.026690      2.000000
 -0.031088  0.062177  0.026690      2.000000
 -0.062177 -0.031088  0.026690      2.000000
  0.031088 -0.062177  0.026690      2.000000
 -0.062177  0.031088 -0.026690      2.000000
  0.031088  0.062177 -0.026690      2.000000
  0.062177 -0.031088 -0.026690      2.000000
 -0.031088 -0.062177 -0.026690      2.000000
  0.093265  0.031088  0.026690      2.000000
 -0.031088  0.093265  0.026690      2.000000
 -0.093265 -0.031088  0.026690      2.000000
  0.031088 -0.093265  0.026690      2.000000
 -0.093265  0.031088 -0.026690      2.000000
  0.031088  0.093265 -0.026690      2.000000
  0.093265 -0.031088 -0.026690      2.000000
 -0.031088 -0.093265 -0.026690      2.000000
  0.124353  0.031088  0.026690      2.000000
 -0.031088  0.124353  0.026690      2.000000
 -0.124353 -0.031088  0.026690      2.000000
  0.031088 -0.124353  0.026690      2.000000
 -0.124353  0.031088 -0.026690      2.000000
  0.031088  0.124353 -0.026690      2.000000
  0.124353 -0.031088 -0.026690      2.000000
 -0.031088 -0.124353 -0.026690      2.000000
  0.062177  0.062177  0.026690      2.000000
 -0.062177  0.062177  0.026690      2.000000
 -0.062177 -0.062177  0.026690      2.000000
  0.062177 -0.062177  0.026690      2.000000
  0.093265  0.062177  0.026690      2.000000
 -0.062177  0.093265  0.026690      2.000000
 -0.093265 -0.062177  0.026690      2.000000
  0.062177 -0.093265  0.026690      2.000000
 -0.093265  0.062177 -0.026690      2.000000
  0.062177  0.093265 -0.026690      2.000000
  0.093265 -0.062177 -0.026690      2.000000
 -0.062177 -0.093265 -0.026690      2.000000
  0.124353  0.062177  0.026690      2.000000
 -0.062177  0.124353  0.026690      2.000000
 -0.124353 -0.062177  0.026690      2.000000
  0.062177 -0.124353  0.026690      2.000000
 -0.124353  0.062177 -0.026690      2.000000
  0.062177  0.124353 -0.026690      2.000000
  0.124353 -0.062177 -0.026690      2.000000
 -0.062177 -0.124353 -0.026690      2.000000
  0.093265  0.093265  0.026690      2.000000
 -0.093265  0.093265  0.026690      2.000000
 -0.093265 -0.093265  0.026690      2.000000
  0.093265 -0.093265  0.026690      2.000000
  0.124353  0.093265  0.026690      2.000000
 -0.093265  0.124353  0.026690      2.000000
 -0.124353 -0.093265  0.026690      2.000000
  0.093265 -0.124353  0.026690      2.000000
 -0.124353  0.093265 -0.026690      2.000000
  0.093265  0.124353 -0.026690      2.000000
  0.124353 -0.093265 -0.026690      2.000000
 -0.093265 -0.124353 -0.026690      2.000000
  0.124353  0.124353  0.026690      2.000000
 -0.124353  0.124353  0.026690      2.000000
 -0.124353 -0.124353  0.026690      2.000000
  0.124353 -0.124353  0.026690      2.000000
 


--------------------------------------------------------------------------------------------------------




 Dimension of arrays:
   k-points           NKPTS =    122   k-points in BZ     NKDIM =    122   number of bands    NBANDS=     64
   number of dos      NEDOS =    301   number of ions     NIONS =     10
   non local maximal  LDIM  =      6   non local SUM 2l+1 LMDIM =     18
   total plane-waves  NPLWV =  75264
   max r-space proj   IRMAX =      1   max aug-charges    IRDMAX=  22706
   dimension x,y,z NGX =    28 NGY =   28 NGZ =   96
   dimension x,y,z NGXF=    56 NGYF=   56 NGZF=  192
   support grid    NGXF=    56 NGYF=   56 NGZF=  192
   ions per type =               2   4   4
   NGX,Y,Z   is equivalent  to a cutoff of  13.02, 13.02, 12.78 a.u.
   NGXF,Y,Z  is equivalent  to a cutoff of  26.05, 26.05, 25.56 a.u.

 SYSTEM =  unknown system                          
 POSCAR =  generated by phonopy                    

 Startparameter for this run:
   NWRITE =      2    write-flag & timer
   PREC   = accura    normal or accurate (medium, high low for compatibility)
   ISTART =      0    job   : 0-new  1-cont  2-samecut
   ICHARG =      2    charge: 1-file 2-atom 10-const
   ISPIN  =      2    spin polarized calculation?
   LNONCOLLINEAR =      F non collinear calculations
   LSORBIT =      F    spin-orbit coupling
   INIWAV =      1    electr: 0-lowe 1-rand  2-diag
   LASPH  =      T    aspherical Exc in radial PAW
   METAGGA=      F    non-selfconsistent MetaGGA calc.

 Electronic Relaxation 1
   ENCUT  =  520.0 eV  38.22 Ry    6.18 a.u.   6.65  6.65 23.22*2*pi/ulx,y,z
   ENINI  =  520.0     initial cutoff
   ENAUG  =  627.1 eV  augmentation charge cutoff
   NELM   =    200;   NELMIN=  6; NELMDL= -5     # of ELM steps 
   EDIFF  = 0.1E-05   stopping-criterion for ELM
   LREAL  =      F    real-space projection
   NLSPLINE    = F    spline interpolate recip. space projectors
   LCOMPAT=      F    compatible to vasp.4.4
   GGA_COMPAT  = T    GGA compatible to vasp.4.4-vasp.4.6
   LMAXPAW     = -100 max onsite density
   LMAXMIX     =    2 max onsite mixed and CHGCAR
   VOSKOWN=      0    Vosko Wilk Nusair interpolation
   ROPT   =    0.00000   0.00000   0.00000
 Ionic relaxation
   EDIFFG = -.3E-01   stopping-criterion for IOM
   NSW    =      0    number of steps for IOM
   NBLOCK =      1;   KBLOCK =      1    inner block; outer block 
   IBRION =     -1    ionic relax: 0-MD 1-quasi-New 2-CG
   NFREE  =      0    steps in history (QN), initial steepest desc. (CG)
   ISIF   =      2    stress and relaxation
   IWAVPR =     10    prediction:  0-non 1-charg 2-wave 3-comb
   ISYM   =      0    0-nonsym 1-usesym 2-fastsym
   LCORR  =      T    Harris-Foulkes like correction to forces

   POTIM  = 0.5000    time-step for ionic-motion
   TEIN   =    0.0    initial temperature
   TEBEG  =    0.0;   TEEND  =   0.0 temperature during run
   SMASS  =  -3.00    Nose mass-parameter (am)
   estimated Nose-frequenzy (Omega)   =  0.10E-29 period in steps = 0.13E+47 mass=  -0.292E-27a.u.
   SCALEE = 1.0000    scale energy and forces
   NPACO  =    256;   APACO  = 16.0  distance and # of slots for P.C.
   PSTRESS=    0.0 pullay stress

  Mass of Ions in am
   POMASS =  65.39 40.08 14.00
  Ionic Valenz
   ZVAL   =  12.00 10.00  5.00
  Atomic Wigner-Seitz radii
   RWIGS  =  -1.00 -1.00 -1.00
  virtual crystal weights 
   VCA    =   1.00  1.00  1.00
   NELECT =      84.0000    total number of electrons
   NUPDOWN=      -1.0000    fix difference up-down

 DOS related values:
   EMIN   =  10.00;   EMAX   =-10.00  energy-range for DOS
   EFERMI =   0.00
   ISMEAR =     0;   SIGMA  =   0.05  broadening in eV -4-tet -1-fermi 0-gaus

 Electronic relaxation 2 (details)
   IALGO  =     38    algorithm
   LDIAG  =      T    sub-space diagonalisation (order eigenvalues)
   LSUBROT=      F    optimize rotation matrix (better conditioning)
   TURBO    =      0    0=normal 1=particle mesh
   IRESTART =      0    0=no restart 2=restart with 2 vectors
   NREBOOT  =      0    no. of reboots
   NMIN     =      0    reboot dimension
   EREF     =   0.00    reference energy to select bands
   IMIX   =      4    mixing-type and parameters
     AMIX     =   0.40;   BMIX     =  1.00
     AMIX_MAG =   1.60;   BMIX_MAG =  1.00
     AMIN     =   0.10
     WC   =   100.;   INIMIX=   1;  MIXPRE=   1;  MAXMIX= -45

 Intra band minimization:
   WEIMIN = 0.0000     energy-eigenvalue tresh-hold
   EBREAK =  0.39E-08  absolut break condition
   DEPER  =   0.30     relativ break condition  

   TIME   =   0.40     timestep for ELM

  volume/ion in A,a.u.               =      15.95       107.66
  Fermi-wavevector in a.u.,A,eV,Ry     =   1.321965  2.498152 23.777441  1.747593
  Thomas-Fermi vector in A             =   2.451681
 
 Write flags
   LWAVE        =      F    write WAVECAR
   LDOWNSAMPLE  =      F    k-point downsampling of WAVECAR
   LCHARG       =      F    write CHGCAR
   LVTOT        =      F    write LOCPOT, total local potential
   LVHAR        =      F    write LOCPOT, Hartree potential only
   LELF         =      F    write electronic localiz. function (ELF)
   LORBIT       =     11    0 simple, 1 ext, 2 COOP (PROOUT), +10 PAW based schemes


 Dipole corrections
   LMONO  =      F    monopole corrections only (constant potential shift)
   LDIPOL =      F    correct potential (dipole corrections)
   IDIPOL =      0    1-x, 2-y, 3-z, 4-all directions 
   EPSILON=  1.0000000 bulk dielectric constant

 Exchange correlation treatment:
   GGA     =    --    GGA type
   LEXCH   =     8    internal setting for exchange type
   VOSKOWN=      0    Vosko Wilk Nusair interpolation
   LHFCALC =     F    Hartree Fock is set to
   LHFONE  =     F    Hartree Fock one center treatment
   AEXX    =    0.0000 exact exchange contribution

 Linear response parameters
   LEPSILON=     F    determine dielectric tensor
   LRPA    =     F    only Hartree local field effects (RPA)
   LNABLA  =     F    use nabla operator in PAW spheres
   LVEL    =     F    velocity operator in full k-point grid
   LINTERFAST=   F  fast interpolation
   KINTER  =     0    interpolate to denser k-point grid
   CSHIFT  =0.1000    complex shift for real part using Kramers Kronig
   OMEGAMAX=  -1.0    maximum frequency
   DEG_THRESHOLD= 0.2000000E-02 threshold for treating states as degnerate
   RTIME   =   -0.100 relaxation time in fs
  (WPLASMAI=    0.000 imaginary part of plasma frequency in eV, 0.658/RTIME)
   DFIELD  = 0.0000000 0.0000000 0.0000000 field for delta impulse in time
 
 Orbital magnetization related:
   ORBITALMAG=     F  switch on orbital magnetization
   LCHIMAG   =     F  perturbation theory with respect to B field
   DQ        =  0.001000  dq finite difference perturbation B field
   LLRAUG    =     F  two centre corrections for induced B field



--------------------------------------------------------------------------------------------------------


 Static calculation
 charge density and potential will be updated during run
 spin polarized calculation
 Variant of blocked Davidson
 Davidson routine will perform the subspace rotation
 perform sub-space diagonalisation
    after iterative eigenvector-optimisation
 modified Broyden-mixing scheme, WC =      100.0
 initial mixing is a Kerker type mixing with AMIX =  0.4000 and BMIX =      1.0000
 Hartree-type preconditioning will be used
 using additional bands           22
 reciprocal scheme for non local part
 use partial core corrections
 calculate Harris-corrections to forces 
   (improved forces if not selfconsistent)
 use gradient corrections 
 use of overlap-Matrix (Vanderbilt PP)
 Gauss-broadening in eV      SIGMA  =   0.05


--------------------------------------------------------------------------------------------------------


  energy-cutoff  :      520.00
  volume of cell :      159.53
      direct lattice vectors                 reciprocal lattice vectors
     3.574043013  0.000000006 -0.000000042     0.279795178 -0.000000001  0.000000003
     0.000000007  3.574042987 -0.000000007    -0.000000001  0.279795180  0.000000001
    -0.000000145 -0.000000025 12.488892887     0.000000001  0.000000000  0.080071149

  length of vectors
     3.574043013  3.574042987 12.488892887     0.279795178  0.279795180  0.080071149


 
 k-points in units of 2pi/SCALE and weight: Kpoints                                 
   0.00000000  0.00000000  0.00000000       0.004
   0.03108835 -0.00000000  0.00000000       0.008
  -0.00000000  0.03108835  0.00000000       0.008
   0.06217671 -0.00000000  0.00000000       0.008
  -0.00000000  0.06217671  0.00000000       0.008
   0.09326506 -0.00000000  0.00000000       0.008
  -0.00000000  0.09326506  0.00000000       0.008
   0.12435341 -0.00000000  0.00000000       0.008
  -0.00000000  0.12435341  0.00000000       0.008
   0.03108835  0.03108835  0.00000000       0.008
  -0.03108835  0.03108835 -0.00000000       0.008
   0.06217671  0.03108835  0.00000000       0.008
  -0.03108835  0.06217671 -0.00000000       0.008
  -0.06217671  0.03108835 -0.00000000       0.008
   0.03108835  0.06217671  0.00000000       0.008
   0.09326506  0.03108835  0.00000000       0.008
  -0.03108835  0.09326506 -0.00000000       0.008
  -0.09326506  0.03108835 -0.00000000       0.008
   0.03108835  0.09326506  0.00000000       0.008
   0.12435341  0.03108835  0.00000000       0.008
  -0.03108835  0.12435341 -0.00000000       0.008
  -0.12435341  0.03108835 -0.00000000       0.008
   0.03108835  0.12435341  0.00000000       0.008
   0.06217671  0.06217671  0.00000000       0.008
  -0.06217671  0.06217671 -0.00000000       0.008
   0.09326506  0.06217671  0.00000000       0.008
  -0.06217671  0.09326506 -0.00000000       0.008
  -0.09326506  0.06217671 -0.00000000       0.008
   0.06217671  0.09326506  0.00000000       0.008
   0.12435341  0.06217671  0.00000000       0.008
  -0.06217671  0.12435341 -0.00000000       0.008
  -0.12435341  0.06217671 -0.00000000       0.008
   0.06217671  0.12435341  0.00000000       0.008
   0.09326506  0.09326506  0.00000000       0.008
  -0.09326506  0.09326506 -0.00000000       0.008
   0.12435341  0.09326506  0.00000000       0.008
  -0.09326506  0.12435341 -0.00000000       0.008
  -0.12435341  0.09326506 -0.00000000       0.008
   0.09326506  0.12435341  0.00000000       0.008
   0.12435341  0.12435341  0.00000000       0.008
  -0.12435341  0.12435341 -0.00000000       0.008
   0.00000000  0.00000000  0.02669038       0.008
   0.03108835 -0.00000000  0.02669038       0.008
   0.00000000  0.03108835  0.02669038       0.008
  -0.03108835  0.00000000  0.02669038       0.008
   0.00000000 -0.03108835  0.02669038       0.008
   0.06217671 -0.00000000  0.02669038       0.008
   0.00000000  0.06217671  0.02669038       0.008
  -0.06217671  0.00000000  0.02669038       0.008
   0.00000000 -0.06217671  0.02669038       0.008
   0.09326506 -0.00000000  0.02669038       0.008
   0.00000000  0.09326506  0.02669038       0.008
  -0.09326506  0.00000000  0.02669038       0.008
   0.00000000 -0.09326506  0.02669038       0.008
   0.12435341 -0.00000000  0.02669038       0.008
   0.00000000  0.12435341  0.02669038       0.008
  -0.12435341  0.00000000  0.02669038       0.008
   0.00000000 -0.12435341  0.02669038       0.008
   0.03108835  0.03108835  0.02669038       0.008
  -0.03108835  0.03108835  0.02669038       0.008
  -0.03108835 -0.03108835  0.02669038       0.008
   0.03108835 -0.03108835  0.02669038       0.008
   0.06217671  0.03108835  0.02669038       0.008
  -0.03108835  0.06217671  0.02669038       0.008
  -0.06217671 -0.03108835  0.02669038       0.008
   0.03108835 -0.06217671  0.02669038       0.008
  -0.06217671  0.03108835 -0.02669038       0.008
   0.03108835  0.06217671 -0.02669038       0.008
   0.06217671 -0.03108835 -0.02669038       0.008
  -0.03108835 -0.06217671 -0.02669038       0.008
   0.09326506  0.03108835  0.02669038       0.008
  -0.03108835  0.09326506  0.02669038       0.008
  -0.09326506 -0.03108835  0.02669038       0.008
   0.03108835 -0.09326506  0.02669038       0.008
  -0.09326506  0.03108835 -0.02669038       0.008
   0.03108835  0.09326506 -0.02669038       0.008
   0.09326506 -0.03108835 -0.02669038       0.008
  -0.03108835 -0.09326506 -0.02669038       0.008
   0.12435341  0.03108835  0.02669038       0.008
  -0.03108835  0.12435341  0.02669038       0.008
  -0.12435341 -0.03108835  0.02669038       0.008
   0.03108835 -0.12435341  0.02669038       0.008
  -0.12435341  0.03108835 -0.02669038       0.008
   0.03108835  0.12435341 -0.02669038       0.008
   0.12435341 -0.03108835 -0.02669038       0.008
  -0.03108835 -0.12435341 -0.02669038       0.008
   0.06217671  0.06217671  0.02669038       0.008
  -0.06217671  0.06217671  0.02669038       0.008
  -0.06217671 -0.06217671  0.02669038       0.008
   0.06217671 -0.06217671  0.02669038       0.008
   0.09326506  0.06217671  0.02669038       0.008
  -0.06217671  0.09326506  0.02669038       0.008
  -0.09326506 -0.06217671  0.02669038       0.008
   0.06217671 -0.09326506  0.02669038       0.008
  -0.09326506  0.06217671 -0.02669038       0.008
   0.06217671  0.09326506 -0.02669038       0.008
   0.09326506 -0.06217671 -0.02669038       0.008
  -0.06217671 -0.09326506 -0.02669038       0.008
   0.12435341  0.06217671  0.02669038       0.008
  -0.06217671  0.12435341  0.02669038       0.008
  -0.12435341 -0.06217671  0.02669038       0.008
   0.06217671 -0.12435341  0.02669038       0.008
  -0.12435341  0.06217671 -0.02669038       0.008
   0.06217671  0.12435341 -0.02669038       0.008
   0.12435341 -0.06217671 -0.02669038       0.008
  -0.06217671 -0.12435341 -0.02669038       0.008
   0.09326506  0.09326506  0.02669038       0.008
  -0.09326506  0.09326506  0.02669038       0.008
  -0.09326506 -0.09326506  0.02669038       0.008
   0.09326506 -0.09326506  0.02669038       0.008
   0.12435341  0.09326506  0.02669038       0.008
  -0.09326506  0.12435341  0.02669038       0.008
  -0.12435341 -0.09326506  0.02669038       0.008
   0.09326506 -0.12435341  0.02669038       0.008
  -0.12435341  0.09326506 -0.02669038       0.008
   0.09326506  0.12435341 -0.02669038       0.008
   0.12435341 -0.09326506 -0.02669038       0.008
  -0.09326506 -0.12435341 -0.02669038       0.008
   0.12435341  0.12435341  0.02669038       0.008
  -0.12435341  0.12435341  0.02669038       0.008
  -0.12435341 -0.12435341  0.02669038       0.008
   0.12435341 -0.12435341  0.02669038       0.008
 
 k-points in reciprocal lattice and weights: Kpoints                                 
   0.00000000  0.00000000  0.00000000       0.004
   0.11111111  0.00000000 -0.00000000       0.008
  -0.00000000  0.11111111  0.00000000       0.008
   0.22222222  0.00000000 -0.00000000       0.008
  -0.00000000  0.22222222  0.00000000       0.008
   0.33333333  0.00000000  0.00000000       0.008
  -0.00000000  0.33333333  0.00000000       0.008
   0.44444444  0.00000000  0.00000000       0.008
  -0.00000000  0.44444444  0.00000000       0.008
   0.11111111  0.11111111 -0.00000000       0.008
  -0.11111111  0.11111111  0.00000000       0.008
   0.22222222  0.11111111 -0.00000000       0.008
  -0.11111111  0.22222222  0.00000000       0.008
  -0.22222222  0.11111111  0.00000000       0.008
   0.11111111  0.22222222 -0.00000000       0.008
   0.33333333  0.11111111  0.00000000       0.008
  -0.11111111  0.33333333  0.00000000       0.008
  -0.33333333  0.11111111 -0.00000000       0.008
   0.11111111  0.33333333 -0.00000000       0.008
   0.44444444  0.11111111  0.00000000       0.008
  -0.11111111  0.44444444  0.00000000       0.008
  -0.44444444  0.11111111 -0.00000000       0.008
   0.11111111  0.44444444 -0.00000000       0.008
   0.22222222  0.22222222 -0.00000000       0.008
  -0.22222222  0.22222222  0.00000000       0.008
   0.33333333  0.22222222  0.00000000       0.008
  -0.22222222  0.33333333  0.00000000       0.008
  -0.33333333  0.22222222 -0.00000000       0.008
   0.22222222  0.33333333 -0.00000000       0.008
   0.44444444  0.22222222  0.00000000       0.008
  -0.22222222  0.44444444  0.00000000       0.008
  -0.44444444  0.22222222 -0.00000000       0.008
   0.22222222  0.44444444 -0.00000000       0.008
   0.33333333  0.33333333  0.00000000       0.008
  -0.33333333  0.33333333 -0.00000000       0.008
   0.44444444  0.33333333  0.00000000       0.008
  -0.33333333  0.44444444 -0.00000000       0.008
  -0.44444444  0.33333333 -0.00000000       0.008
   0.33333333  0.44444444  0.00000000       0.008
   0.44444444  0.44444444  0.00000000       0.008
  -0.44444444  0.44444444  0.00000000       0.008
   0.00000000 -0.00000000  0.33333333       0.008
   0.11111111  0.00000000  0.33333333       0.008
   0.00000000  0.11111111  0.33333333       0.008
  -0.11111111 -0.00000000  0.33333333       0.008
   0.00000000 -0.11111111  0.33333333       0.008
   0.22222222  0.00000000  0.33333333       0.008
  -0.00000000  0.22222222  0.33333333       0.008
  -0.22222222 -0.00000000  0.33333333       0.008
   0.00000000 -0.22222222  0.33333333       0.008
   0.33333333  0.00000000  0.33333333       0.008
  -0.00000000  0.33333333  0.33333333       0.008
  -0.33333333 -0.00000000  0.33333333       0.008
   0.00000000 -0.33333333  0.33333333       0.008
   0.44444444  0.00000000  0.33333333       0.008
  -0.00000000  0.44444444  0.33333333       0.008
  -0.44444444 -0.00000000  0.33333333       0.008
   0.00000000 -0.44444444  0.33333333       0.008
   0.11111111  0.11111111  0.33333333       0.008
  -0.11111111  0.11111111  0.33333333       0.008
  -0.11111111 -0.11111111  0.33333333       0.008
   0.11111111 -0.11111111  0.33333333       0.008
   0.22222222  0.11111111  0.33333333       0.008
  -0.11111111  0.22222222  0.33333333       0.008
  -0.22222222 -0.11111111  0.33333333       0.008
   0.11111111 -0.22222222  0.33333333       0.008
  -0.22222222  0.11111111 -0.33333333       0.008
   0.11111111  0.22222222 -0.33333333       0.008
   0.22222222 -0.11111111 -0.33333333       0.008
  -0.11111111 -0.22222222 -0.33333333       0.008
   0.33333333  0.11111111  0.33333333       0.008
  -0.11111111  0.33333333  0.33333333       0.008
  -0.33333333 -0.11111111  0.33333333       0.008
   0.11111111 -0.33333333  0.33333333       0.008
  -0.33333333  0.11111111 -0.33333333       0.008
   0.11111111  0.33333333 -0.33333333       0.008
   0.33333333 -0.11111111 -0.33333333       0.008
  -0.11111111 -0.33333333 -0.33333333       0.008
   0.44444444  0.11111111  0.33333333       0.008
  -0.11111111  0.44444444  0.33333333       0.008
  -0.44444444 -0.11111111  0.33333333       0.008
   0.11111111 -0.44444444  0.33333333       0.008
  -0.44444444  0.11111111 -0.33333333       0.008
   0.11111111  0.44444444 -0.33333333       0.008
   0.44444444 -0.11111111 -0.33333333       0.008
  -0.11111111 -0.44444444 -0.33333333       0.008
   0.22222222  0.22222222  0.33333333       0.008
  -0.22222222  0.22222222  0.33333333       0.008
  -0.22222222 -0.22222222  0.33333333       0.008
   0.22222222 -0.22222222  0.33333333       0.008
   0.33333333  0.22222222  0.33333333       0.008
  -0.22222222  0.33333333  0.33333333       0.008
  -0.33333333 -0.22222222  0.33333333       0.008
   0.22222222 -0.33333333  0.33333333       0.008
  -0.33333333  0.22222222 -0.33333333       0.008
   0.22222222  0.33333333 -0.33333333       0.008
   0.33333333 -0.22222222 -0.33333333       0.008
  -0.22222222 -0.33333333 -0.33333333       0.008
   0.44444444  0.22222222  0.33333333       0.008
  -0.22222222  0.44444444  0.33333333       0.008
  -0.44444444 -0.22222222  0.33333333       0.008
   0.22222222 -0.44444444  0.33333333       0.008
  -0.44444444  0.22222222 -0.33333333       0.008
   0.22222222  0.44444444 -0.33333333       0.008
   0.44444444 -0.22222222 -0.33333333       0.008
  -0.22222222 -0.44444444 -0.33333333       0.008
   0.33333333  0.33333333  0.33333333       0.008
  -0.33333333  0.33333333  0.33333333       0.008
  -0.33333333 -0.33333333  0.33333333       0.008
   0.33333333 -0.33333333  0.33333333       0.008
   0.44444444  0.33333333  0.33333333       0.008
  -0.33333333  0.44444444  0.33333333       0.008
  -0.44444444 -0.33333333  0.33333333       0.008
   0.33333333 -0.44444444  0.33333333       0.008
  -0.44444444  0.33333333 -0.33333333       0.008
   0.33333333  0.44444444 -0.33333333       0.008
   0.44444444 -0.33333333 -0.33333333       0.008
  -0.33333333 -0.44444444 -0.33333333       0.008
   0.44444444  0.44444444  0.33333333       0.008
  -0.44444444  0.44444444  0.33333333       0.008
  -0.44444444 -0.44444444  0.33333333       0.008
   0.44444444 -0.44444444  0.33333333       0.008
 
 position of ions in fractional coordinates (direct lattice) 
   0.99999998  0.00000000  0.00000014
   0.49999999  0.50000000  0.49999991
   0.99923032  1.00000000  0.33679786
   0.00000012  0.00000001  0.66243234
   0.50000015  0.50000000  0.83756765
   0.50000011  0.49999999  0.16243235
   0.99999985  0.00000002  0.14577535
   0.99999991  0.00000000  0.85422446
   0.49999989  0.50000000  0.64577551
   0.49999987  0.49999998  0.35422463
 
 position of ions in cartesian coordinates  (Angst):
   3.57404296  0.00000001  0.00000175
   1.78702139  1.78702148  6.24444526
   3.57129209  3.57404298  4.20623236
   0.00000033  0.00000003  8.27304648
   1.78702191  1.78702149 10.46029264
   1.78702188  1.78702144  2.02860018
   3.57404247  0.00000007  1.82057265
   3.57404255 -0.00000001 10.66831772
   1.78702104  1.78702148  8.06502116
   1.78702100  1.78702140  4.42387343
 


--------------------------------------------------------------------------------------------------------


 k-point   1 :   0.0000 0.0000 0.0000  plane waves:    4327
 k-point   2 :   0.1111 0.0000-0.0000  plane waves:    4311
 k-point   3 :  -0.0000 0.1111 0.0000  plane waves:    4311
 k-point   4 :   0.2222 0.0000-0.0000  plane waves:    4319
 k-point   5 :  -0.0000 0.2222 0.0000  plane waves:    4319
 k-point   6 :   0.3333 0.0000 0.0000  plane waves:    4299
 k-point   7 :  -0.0000 0.3333 0.0000  plane waves:    4299
 k-point   8 :   0.4444 0.0000 0.0000  plane waves:    4290
 k-point   9 :  -0.0000 0.4444 0.0000  plane waves:    4290
 k-point  10 :   0.1111 0.1111-0.0000  plane waves:    4317
 k-point  11 :  -0.1111 0.1111 0.0000  plane waves:    4317
 k-point  12 :   0.2222 0.1111-0.0000  plane waves:    4303
 k-point  13 :  -0.1111 0.2222 0.0000  plane waves:    4303
 k-point  14 :  -0.2222 0.1111 0.0000  plane waves:    4303
 k-point  15 :   0.1111 0.2222-0.0000  plane waves:    4303
 k-point  16 :   0.3333 0.1111 0.0000  plane waves:    4293
 k-point  17 :  -0.1111 0.3333 0.0000  plane waves:    4293
 k-point  18 :  -0.3333 0.1111-0.0000  plane waves:    4293
 k-point  19 :   0.1111 0.3333-0.0000  plane waves:    4293
 k-point  20 :   0.4444 0.1111 0.0000  plane waves:    4280
 k-point  21 :  -0.1111 0.4444 0.0000  plane waves:    4280
 k-point  22 :  -0.4444 0.1111-0.0000  plane waves:    4280
 k-point  23 :   0.1111 0.4444-0.0000  plane waves:    4280
 k-point  24 :   0.2222 0.2222-0.0000  plane waves:    4297
 k-point  25 :  -0.2222 0.2222 0.0000  plane waves:    4297
 k-point  26 :   0.3333 0.2222 0.0000  plane waves:    4287
 k-point  27 :  -0.2222 0.3333 0.0000  plane waves:    4287
 k-point  28 :  -0.3333 0.2222-0.0000  plane waves:    4287
 k-point  29 :   0.2222 0.3333-0.0000  plane waves:    4287
 k-point  30 :   0.4444 0.2222 0.0000  plane waves:    4306
 k-point  31 :  -0.2222 0.4444 0.0000  plane waves:    4306
 k-point  32 :  -0.4444 0.2222-0.0000  plane waves:    4306
 k-point  33 :   0.2222 0.4444-0.0000  plane waves:    4306
 k-point  34 :   0.3333 0.3333 0.0000  plane waves:    4280
 k-point  35 :  -0.3333 0.3333-0.0000  plane waves:    4280
 k-point  36 :   0.4444 0.3333 0.0000  plane waves:    4285
 k-point  37 :  -0.3333 0.4444-0.0000  plane waves:    4285
 k-point  38 :  -0.4444 0.3333-0.0000  plane waves:    4285
 k-point  39 :   0.3333 0.4444 0.0000  plane waves:    4285
 k-point  40 :   0.4444 0.4444 0.0000  plane waves:    4298
 k-point  41 :  -0.4444 0.4444 0.0000  plane waves:    4298
 k-point  42 :   0.0000-0.0000 0.3333  plane waves:    4298
 k-point  43 :   0.1111 0.0000 0.3333  plane waves:    4317
 k-point  44 :   0.0000 0.1111 0.3333  plane waves:    4317
 k-point  45 :  -0.1111-0.0000 0.3333  plane waves:    4317
 k-point  46 :   0.0000-0.1111 0.3333  plane waves:    4317
 k-point  47 :   0.2222 0.0000 0.3333  plane waves:    4319
 k-point  48 :  -0.0000 0.2222 0.3333  plane waves:    4319
 k-point  49 :  -0.2222-0.0000 0.3333  plane waves:    4319
 k-point  50 :   0.0000-0.2222 0.3333  plane waves:    4319
 k-point  51 :   0.3333 0.0000 0.3333  plane waves:    4290
 k-point  52 :  -0.0000 0.3333 0.3333  plane waves:    4290
 k-point  53 :  -0.3333-0.0000 0.3333  plane waves:    4290
 k-point  54 :   0.0000-0.3333 0.3333  plane waves:    4290
 k-point  55 :   0.4444 0.0000 0.3333  plane waves:    4283
 k-point  56 :  -0.0000 0.4444 0.3333  plane waves:    4283
 k-point  57 :  -0.4444-0.0000 0.3333  plane waves:    4283
 k-point  58 :   0.0000-0.4444 0.3333  plane waves:    4283
 k-point  59 :   0.1111 0.1111 0.3333  plane waves:    4316
 k-point  60 :  -0.1111 0.1111 0.3333  plane waves:    4316
 k-point  61 :  -0.1111-0.1111 0.3333  plane waves:    4316
 k-point  62 :   0.1111-0.1111 0.3333  plane waves:    4316
 k-point  63 :   0.2222 0.1111 0.3333  plane waves:    4317
 k-point  64 :  -0.1111 0.2222 0.3333  plane waves:    4317
 k-point  65 :  -0.2222-0.1111 0.3333  plane waves:    4317
 k-point  66 :   0.1111-0.2222 0.3333  plane waves:    4317
 k-point  67 :  -0.2222 0.1111-0.3333  plane waves:    4317
 k-point  68 :   0.1111 0.2222-0.3333  plane waves:    4317
 k-point  69 :   0.2222-0.1111-0.3333  plane waves:    4317
 k-point  70 :  -0.1111-0.2222-0.3333  plane waves:    4317
 k-point  71 :   0.3333 0.1111 0.3333  plane waves:    4293
 k-point  72 :  -0.1111 0.3333 0.3333  plane waves:    4293
 k-point  73 :  -0.3333-0.1111 0.3333  plane waves:    4293
 k-point  74 :   0.1111-0.3333 0.3333  plane waves:    4293
 k-point  75 :  -0.3333 0.1111-0.3333  plane waves:    4293
 k-point  76 :   0.1111 0.3333-0.3333  plane waves:    4293
 k-point  77 :   0.3333-0.1111-0.3333  plane waves:    4293
 k-point  78 :  -0.1111-0.3333-0.3333  plane waves:    4293
 k-point  79 :   0.4444 0.1111 0.3333  plane waves:    4286
 k-point  80 :  -0.1111 0.4444 0.3333  plane waves:    4286
 k-point  81 :  -0.4444-0.1111 0.3333  plane waves:    4286
 k-point  82 :   0.1111-0.4444 0.3333  plane waves:    4286
 k-point  83 :  -0.4444 0.1111-0.3333  plane waves:    4286
 k-point  84 :   0.1111 0.4444-0.3333  plane waves:    4286
 k-point  85 :   0.4444-0.1111-0.3333  plane waves:    4286
 k-point  86 :  -0.1111-0.4444-0.3333  plane waves:    4286
 k-point  87 :   0.2222 0.2222 0.3333  plane waves:    4301
 k-point  88 :  -0.2222 0.2222 0.3333  plane waves:    4301
 k-point  89 :  -0.2222-0.2222 0.3333  plane waves:    4301
 k-point  90 :   0.2222-0.2222 0.3333  plane waves:    4301
 k-point  91 :   0.3333 0.2222 0.3333  plane waves:    4282
 k-point  92 :  -0.2222 0.3333 0.3333  plane waves:    4282
 k-point  93 :  -0.3333-0.2222 0.3333  plane waves:    4282
 k-point  94 :   0.2222-0.3333 0.3333  plane waves:    4282
 k-point  95 :  -0.3333 0.2222-0.3333  plane waves:    4282
 k-point  96 :   0.2222 0.3333-0.3333  plane waves:    4282
 k-point  97 :   0.3333-0.2222-0.3333  plane waves:    4282
 k-point  98 :  -0.2222-0.3333-0.3333  plane waves:    4282
 k-point  99 :   0.4444 0.2222 0.3333  plane waves:    4278
 k-point 100 :  -0.2222 0.4444 0.3333  plane waves:    4278
 k-point 101 :  -0.4444-0.2222 0.3333  plane waves:    4278
 k-point 102 :   0.2222-0.4444 0.3333  plane waves:    4278
 k-point 103 :  -0.4444 0.2222-0.3333  plane waves:    4278
 k-point 104 :   0.2222 0.4444-0.3333  plane waves:    4278
 k-point 105 :   0.4444-0.2222-0.3333  plane waves:    4278
 k-point 106 :  -0.2222-0.4444-0.3333  plane waves:    4278
 k-point 107 :   0.3333 0.3333 0.3333  plane waves:    4284
 k-point 108 :  -0.3333 0.3333 0.3333  plane waves:    4284
 k-point 109 :  -0.3333-0.3333 0.3333  plane waves:    4284
 k-point 110 :   0.3333-0.3333 0.3333  plane waves:    4284
 k-point 111 :   0.4444 0.3333 0.3333  plane waves:    4284
 k-point 112 :  -0.3333 0.4444 0.3333  plane waves:    4284
 k-point 113 :  -0.4444-0.3333 0.3333  plane waves:    4284
 k-point 114 :   0.3333-0.4444 0.3333  plane waves:    4284
 k-point 115 :  -0.4444 0.3333-0.3333  plane waves:    4284
 k-point 116 :   0.3333 0.4444-0.3333  plane waves:    4284
 k-point 117 :   0.4444-0.3333-0.3333  plane waves:    4284
 k-point 118 :  -0.3333-0.4444-0.3333  plane waves:    4284
 k-point 119 :   0.4444 0.4444 0.3333  plane waves:    4304
 k-point 120 :  -0.4444 0.4444 0.3333  plane waves:    4304
 k-point 121 :  -0.4444-0.4444 0.3333  plane waves:    4304
 k-point 122 :   0.4444-0.4444 0.3333  plane waves:    4304

 maximum and minimum number of plane-waves per node :      1095     1056

 maximum number of plane-waves:      4327
 maximum index in each direction: 
   IXMAX=    7   IYMAX=    7   IZMAX=   23
   IXMIN=   -7   IYMIN=   -7   IZMIN=  -23


 parallel 3D FFT for wavefunctions:
    minimum data exchange during FFTs selected (reduces bandwidth)
 parallel 3D FFT for charge:
    minimum data exchange during FFTs selected (reduces bandwidth)


 total amount of memory used by VASP MPI-rank0   111221. kBytes
=======================================================================

   base      :      30000. kBytes
   nonl-proj :      58361. kBytes
   fftplans  :        935. kBytes
   grid      :       3843. kBytes
   one-center:         93. kBytes
   wavefun   :      17989. kBytes
 
     INWAV:  cpu time    0.0000: real time    0.0000
 Broyden mixing: mesh for mixing (old mesh)
   NGX = 13   NGY = 13   NGZ = 47
  (NGX  = 56   NGY  = 56   NGZ  =192)
  gives a total of   7943 points

 initial charge density was supplied:
 charge density of overlapping atoms calculated
 number of electron      84.0000000 magnetization       0.6000000
 keeping initial charge density in first step


--------------------------------------------------------------------------------------------------------


 Maximum index for augmentation-charges          944 (set IRDMAX)


--------------------------------------------------------------------------------------------------------


 First call to EWALD:  gamma=   0.327
 Maximum number of real-space cells 4x 4x 1
 Maximum number of reciprocal cells 2x 2x 6

    FEWALD:  cpu time    0.0015: real time    0.0016


--------------------------------------- Iteration      1(   1)  ---------------------------------------


    POTLOK:  cpu time    0.0405: real time    0.0575
    SETDIJ:  cpu time    0.9820: real time    0.9834
     EDDAV:  cpu time    9.9858: real time   10.0083
       DOS:  cpu time    0.0044: real time    0.0044
    --------------------------------------------
      LOOP:  cpu time   11.0127: real time   11.0536

 eigenvalue-minimisations  : 31232
 total energy-change (2. order) : 0.7502520E+03  (-0.4179467E+04)
 number of electron      84.0000000 magnetization       0.6000000
 augmentation part       84.0000000 magnetization       0.6000000

 Free energy of the ion-electron system (eV)
  ---------------------------------------------------
  alpha Z        PSCENC =       451.66503955
  Ewald energy   TEWEN  =     -5990.62060555
  -Hartree energ DENC   =     -2273.72445705
  -exchange      EXHF   =         0.00000000
  -V(xc)+E(xc)   XCENC  =       422.61695796
  PAW double counting   =      6649.44116713    -7029.34659928
  entropy T*S    EENTRO =        -0.00405899
  eigenvalues    EBANDS =       -59.93763395
  atomic energy  EATOM  =      8580.16218116
  Solvation  Ediel_sol  =         0.00000000
  ---------------------------------------------------
  free energy    TOTEN  =       750.25199098 eV

  energy without entropy =      750.25604997  energy(sigma->0) =      750.25402047


--------------------------------------------------------------------------------------------------------




--------------------------------------- Iteration      1(   2)  ---------------------------------------


     EDDAV:  cpu time   11.4391: real time   11.4805
       DOS:  cpu time    0.0023: real time    0.0023
    --------------------------------------------
      LOOP:  cpu time   11.4414: real time   11.4829

 eigenvalue-minimisations  : 32560
 total energy-change (2. order) :-0.8049236E+03  (-0.7682741E+03)
 number of electron      84.0000000 magnetization       0.6000000
 augmentation part       84.0000000 magnetization       0.6000000

 Free energy of the ion-electron system (eV)
  ---------------------------------------------------
  alpha Z        PSCENC =       451.66503955
  Ewald energy   TEWEN  =     -5990.62060555
  -Hartree energ DENC   =     -2273.72445705
  -exchange      EXHF   =         0.00000000
  -V(xc)+E(xc)   XCENC  =       422.61695796
  PAW double counting   =      6649.44116713    -7029.34659928
  entropy T*S    EENTRO =        -0.00000000
  eigenvalues    EBANDS =      -864.86528705
  atomic energy  EATOM  =      8580.16218116
  Solvation  Ediel_sol  =         0.00000000
  ---------------------------------------------------
  free energy    TOTEN  =       -54.67160313 eV

  energy without entropy =      -54.67160313  energy(sigma->0) =      -54.67160313


--------------------------------------------------------------------------------------------------------




--------------------------------------- Iteration      1(   3)  ---------------------------------------


     EDDAV:  cpu time   15.1575: real time   15.2110
       DOS:  cpu time    0.0021: real time    0.0021
    --------------------------------------------
      LOOP:  cpu time   15.1596: real time   15.2131

 eigenvalue-minimisations  : 46432
 total energy-change (2. order) :-0.8418054E+02  (-0.8295507E+02)
 number of electron      84.0000000 magnetization       0.6000000
 augmentation part       84.0000000 magnetization       0.6000000

 Free energy of the ion-electron system (eV)
  ---------------------------------------------------
  alpha Z        PSCENC =       451.66503955
  Ewald energy   TEWEN  =     -5990.62060555
  -Hartree energ DENC   =     -2273.72445705
  -exchange      EXHF   =         0.00000000
  -V(xc)+E(xc)   XCENC  =       422.61695796
  PAW double counting   =      6649.44116713    -7029.34659928
  entropy T*S    EENTRO =        -0.00000000
  eigenvalues    EBANDS =      -949.04583017
  atomic energy  EATOM  =      8580.16218116
  Solvation  Ediel_sol  =         0.00000000
  ---------------------------------------------------
  free energy    TOTEN  =      -138.85214625 eV

  energy without entropy =     -138.85214625  energy(sigma->0) =     -138.85214625


--------------------------------------------------------------------------------------------------------




--------------------------------------- Iteration      1(   4)  ---------------------------------------


     EDDAV:  cpu time   16.3284: real time   16.3637
       DOS:  cpu time    0.0020: real time    0.0020
    --------------------------------------------
      LOOP:  cpu time   16.3304: real time   16.3657

 eigenvalue-minimisations  : 50976
 total energy-change (2. order) :-0.4693551E+01  (-0.4662967E+01)
 number of electron      84.0000000 magnetization       0.6000000
 augmentation part       84.0000000 magnetization       0.6000000

 Free energy of the ion-electron system (eV)
  ---------------------------------------------------
  alpha Z        PSCENC =       451.66503955
  Ewald energy   TEWEN  =     -5990.62060555
  -Hartree energ DENC   =     -2273.72445705
  -exchange      EXHF   =         0.00000000
  -V(xc)+E(xc)   XCENC  =       422.61695796
  PAW double counting   =      6649.44116713    -7029.34659928
  entropy T*S    EENTRO =        -0.00000000
  eigenvalues    EBANDS =      -953.73938071
  atomic energy  EATOM  =      8580.16218116
  Solvation  Ediel_sol  =         0.00000000
  ---------------------------------------------------
  free energy    TOTEN  =      -143.54569679 eV

  energy without entropy =     -143.54569679  energy(sigma->0) =     -143.54569679


--------------------------------------------------------------------------------------------------------




--------------------------------------- Iteration      1(   5)  ---------------------------------------


     EDDAV:  cpu time   13.4426: real time   13.5214
       DOS:  cpu time    0.0019: real time    0.0019
    CHARGE:  cpu time    1.0461: real time    1.0481
    MIXING:  cpu time    0.0021: real time    0.0030
    --------------------------------------------
      LOOP:  cpu time   14.4927: real time   14.5743

 eigenvalue-minimisations  : 40912
 total energy-change (2. order) :-0.1056580E+00  (-0.1056490E+00)
 number of electron      83.9999971 magnetization       0.4060930
 augmentation part       26.6374331 magnetization       0.4297438

 Broyden mixing:
  rms(total) = 0.20789E+01    rms(broyden)= 0.20786E+01
  rms(prec ) = 0.26685E+01
  weight for this iteration     100.00

 Free energy of the ion-electron system (eV)
  ---------------------------------------------------
  alpha Z        PSCENC =       451.66503955
  Ewald energy   TEWEN  =     -5990.62060555
  -Hartree energ DENC   =     -2273.72445705
  -exchange      EXHF   =         0.00000000
  -V(xc)+E(xc)   XCENC  =       422.61695796
  PAW double counting   =      6649.44116713    -7029.34659928
  entropy T*S    EENTRO =        -0.00000000
  eigenvalues    EBANDS =      -953.84503875
  atomic energy  EATOM  =      8580.16218116
  Solvation  Ediel_sol  =         0.00000000
  ---------------------------------------------------
  free energy    TOTEN  =      -143.65135483 eV

  energy without entropy =     -143.65135483  energy(sigma->0) =     -143.65135483


--------------------------------------------------------------------------------------------------------




--------------------------------------- Iteration      1(   6)  ---------------------------------------


    POTLOK:  cpu time    0.0349: real time    0.0350
    SETDIJ:  cpu time    0.9451: real time    0.9461
     EDDAV:  cpu time   14.5463: real time   14.5769
       DOS:  cpu time    0.0019: real time    0.0019
    CHARGE:  cpu time    1.0523: real time    1.0540
    MIXING:  cpu time    0.0009: real time    0.0009
    --------------------------------------------
      LOOP:  cpu time   16.5815: real time   16.6149

 eigenvalue-minimisations  : 47808
 total energy-change (2. order) : 0.3299734E+02  (-0.4346360E+01)
 number of electron      83.9999969 magnetization       0.2807751
 augmentation part       27.5134129 magnetization       0.2780861

 Broyden mixing:
  rms(total) = 0.11512E+01    rms(broyden)= 0.11511E+01
  rms(prec ) = 0.11956E+01
  weight for this iteration     100.00

 eigenvalues of (default mixing * dielectric matrix)
  average eigenvalue GAMMA=   0.8906
  0.8906

 Free energy of the ion-electron system (eV)
  ---------------------------------------------------
  alpha Z        PSCENC =       451.66503955
  Ewald energy   TEWEN  =     -5990.62060555
  -Hartree energ DENC   =     -2269.77572475
  -exchange      EXHF   =         0.00000000
  -V(xc)+E(xc)   XCENC  =       432.67572171
  PAW double counting   =      6970.46235755    -7349.98793557
  entropy T*S    EENTRO =        -0.00000000
  eigenvalues    EBANDS =      -935.23505193
  atomic energy  EATOM  =      8580.16218116
  Solvation  Ediel_sol  =         0.00000000
  ---------------------------------------------------
  free energy    TOTEN  =      -110.65401783 eV

  energy without entropy =     -110.65401783  energy(sigma->0) =     -110.65401783


--------------------------------------------------------------------------------------------------------




--------------------------------------- Iteration      1(   7)  ---------------------------------------


    POTLOK:  cpu time    0.0366: real time    0.0601
    SETDIJ:  cpu time    0.9793: real time    0.9813
     EDDAV:  cpu time   13.7019: real time   13.7328
       DOS:  cpu time    0.0021: real time    0.0021
    CHARGE:  cpu time    1.0590: real time    1.0607
    MIXING:  cpu time    0.0006: real time    0.0006
    --------------------------------------------
      LOOP:  cpu time   15.7794: real time   15.8376

 eigenvalue-minimisations  : 41536
 total energy-change (2. order) :-0.9999602E+00  (-0.1429540E+01)
 number of electron      83.9999969 magnetization       0.1834924
 augmentation part       27.0997156 magnetization       0.1780120

 Broyden mixing:
  rms(total) = 0.67921E+00    rms(broyden)= 0.67913E+00
  rms(prec ) = 0.73013E+00
  weight for this iteration     100.00

 eigenvalues of (default mixing * dielectric matrix)
  average eigenvalue GAMMA=   1.1045
  1.1045  1.1045

 Free energy of the ion-electron system (eV)
  ---------------------------------------------------
  alpha Z        PSCENC =       451.66503955
  Ewald energy   TEWEN  =     -5990.62060555
  -Hartree energ DENC   =     -2286.54262200
  -exchange      EXHF   =         0.00000000
  -V(xc)+E(xc)   XCENC  =       432.85645495
  PAW double counting   =      7237.59354134    -7639.77501964
  entropy T*S    EENTRO =        -0.00000000
  eigenvalues    EBANDS =      -896.99294786
  atomic energy  EATOM  =      8580.16218116
  Solvation  Ediel_sol  =         0.00000000
  ---------------------------------------------------
  free energy    TOTEN  =      -111.65397806 eV

  energy without entropy =     -111.65397806  energy(sigma->0) =     -111.65397806


--------------------------------------------------------------------------------------------------------




--------------------------------------- Iteration      1(   8)  ---------------------------------------


    POTLOK:  cpu time    0.0354: real time    0.0355
    SETDIJ:  cpu time    0.9782: real time    0.9794
     EDDAV:  cpu time   15.5040: real time   15.5384
       DOS:  cpu time    0.0019: real time    0.0019
    CHARGE:  cpu time    1.0584: real time    1.0600
    MIXING:  cpu time    0.0006: real time    0.0006
    --------------------------------------------
      LOOP:  cpu time   17.5784: real time   17.6158

 eigenvalue-minimisations  : 48160
 total energy-change (2. order) : 0.1250978E-01  (-0.1886484E+00)
 number of electron      83.9999969 magnetization       0.0300481
 augmentation part       27.2158251 magnetization       0.0229852

 Broyden mixing:
  rms(total) = 0.38637E+00    rms(broyden)= 0.38635E+00
  rms(prec ) = 0.42223E+00
  weight for this iteration     100.00

 eigenvalues of (default mixing * dielectric matrix)
  average eigenvalue GAMMA=   1.4618
  2.6751  0.8552  0.8552

 Free energy of the ion-electron system (eV)
  ---------------------------------------------------
  alpha Z        PSCENC =       451.66503955
  Ewald energy   TEWEN  =     -5990.62060555
  -Hartree energ DENC   =     -2271.64531121
  -exchange      EXHF   =         0.00000000
  -V(xc)+E(xc)   XCENC  =       431.05871465
  PAW double counting   =      7449.09771597    -7857.91619890
  entropy T*S    EENTRO =        -0.00000000
  eigenvalues    EBANDS =      -903.44300396
  atomic energy  EATOM  =      8580.16218116
  Solvation  Ediel_sol  =         0.00000000
  ---------------------------------------------------
  free energy    TOTEN  =      -111.64146829 eV

  energy without entropy =     -111.64146829  energy(sigma->0) =     -111.64146829


--------------------------------------------------------------------------------------------------------




--------------------------------------- Iteration      1(   9)  ---------------------------------------


    POTLOK:  cpu time    0.0387: real time    0.0820
    SETDIJ:  cpu time    0.9743: real time    0.9755
     EDDAV:  cpu time   13.3346: real time   13.3629
       DOS:  cpu time    0.0021: real time    0.0021
    CHARGE:  cpu time    1.0420: real time    1.0442
    MIXING:  cpu time    0.0005: real time    0.0005
    --------------------------------------------
      LOOP:  cpu time   15.3922: real time   15.4672

 eigenvalue-minimisations  : 42464
 total energy-change (2. order) : 0.8430920E-01  (-0.4812506E-01)
 number of electron      83.9999969 magnetization       0.0351491
 augmentation part       27.1351206 magnetization       0.0294080

 Broyden mixing:
  rms(total) = 0.11943E+00    rms(broyden)= 0.11942E+00
  rms(prec ) = 0.13308E+00
  weight for this iteration     100.00

 eigenvalues of (default mixing * dielectric matrix)
  average eigenvalue GAMMA=   1.2654
  2.4718  0.9371  0.9371  0.7158

 Free energy of the ion-electron system (eV)
  ---------------------------------------------------
  alpha Z        PSCENC =       451.66503955
  Ewald energy   TEWEN  =     -5990.62060555
  -Hartree energ DENC   =     -2271.45249675
  -exchange      EXHF   =         0.00000000
  -V(xc)+E(xc)   XCENC  =       431.75483790
  PAW double counting   =      7775.57573272    -8198.85883358
  entropy T*S    EENTRO =        -0.00000000
  eigenvalues    EBANDS =      -889.78301453
  atomic energy  EATOM  =      8580.16218116
  Solvation  Ediel_sol  =         0.00000000
  ---------------------------------------------------
  free energy    TOTEN  =      -111.55715909 eV

  energy without entropy =     -111.55715909  energy(sigma->0) =     -111.55715909


--------------------------------------------------------------------------------------------------------




--------------------------------------- Iteration      1(  10)  ---------------------------------------


    POTLOK:  cpu time    0.0349: real time    0.0349
    SETDIJ:  cpu time    0.9444: real time    0.9454
     EDDAV:  cpu time   13.7283: real time   13.7639
       DOS:  cpu time    0.0022: real time    0.0022
    CHARGE:  cpu time    1.0526: real time    1.0543
    MIXING:  cpu time    0.0005: real time    0.0005
    --------------------------------------------
      LOOP:  cpu time   15.7628: real time   15.8013

 eigenvalue-minimisations  : 43088
 total energy-change (2. order) : 0.1607544E-01  (-0.1373939E-01)
 number of electron      83.9999969 magnetization       0.0176851
 augmentation part       27.1608119 magnetization       0.0139911

 Broyden mixing:
  rms(total) = 0.41229E-01    rms(broyden)= 0.41211E-01
  rms(prec ) = 0.47753E-01
  weight for this iteration     100.00

 eigenvalues of (default mixing * dielectric matrix)
  average eigenvalue GAMMA=   1.2249
  2.3772  1.2062  0.9017  0.9017  0.7376

 Free energy of the ion-electron system (eV)
  ---------------------------------------------------
  alpha Z        PSCENC =       451.66503955
  Ewald energy   TEWEN  =     -5990.62060555
  -Hartree energ DENC   =     -2271.68476987
  -exchange      EXHF   =         0.00000000
  -V(xc)+E(xc)   XCENC  =       431.66106523
  PAW double counting   =      7719.29083279    -8140.34049361
  entropy T*S    EENTRO =        -0.00000000
  eigenvalues    EBANDS =      -891.67433333
  atomic energy  EATOM  =      8580.16218116
  Solvation  Ediel_sol  =         0.00000000
  ---------------------------------------------------
  free energy    TOTEN  =      -111.54108364 eV

  energy without entropy =     -111.54108364  energy(sigma->0) =     -111.54108364


--------------------------------------------------------------------------------------------------------




--------------------------------------- Iteration      1(  11)  ---------------------------------------


    POTLOK:  cpu time    0.0397: real time    0.0606
    SETDIJ:  cpu time    0.9770: real time    0.9785
     EDDAV:  cpu time   13.3963: real time   13.4251
       DOS:  cpu time    0.0021: real time    0.0021
    CHARGE:  cpu time    1.0571: real time    1.0587
    MIXING:  cpu time    0.0007: real time    0.0007
    --------------------------------------------
      LOOP:  cpu time   15.4727: real time   15.5256

 eigenvalue-minimisations  : 40288
 total energy-change (2. order) :-0.4868620E-03  (-0.1714571E-02)
 number of electron      83.9999969 magnetization       0.0082984
 augmentation part       27.1663194 magnetization       0.0056654

 Broyden mixing:
  rms(total) = 0.13998E-01    rms(broyden)= 0.13997E-01
  rms(prec ) = 0.15570E-01
  weight for this iteration     100.00

 eigenvalues of (default mixing * dielectric matrix)
  average eigenvalue GAMMA=   1.3380
  2.4736  2.1919  0.9562  0.9562  0.7992  0.6509

 Free energy of the ion-electron system (eV)
  ---------------------------------------------------
  alpha Z        PSCENC =       451.66503955
  Ewald energy   TEWEN  =     -5990.62060555
  -Hartree energ DENC   =     -2270.40856914
  -exchange      EXHF   =         0.00000000
  -V(xc)+E(xc)   XCENC  =       431.52562864
  PAW double counting   =      7711.00834549    -8132.42835540
  entropy T*S    EENTRO =        -0.00000000
  eigenvalues    EBANDS =      -892.44523525
  atomic energy  EATOM  =      8580.16218116
  Solvation  Ediel_sol  =         0.00000000
  ---------------------------------------------------
[...]
     53       9.3218      0.00000
     54       9.3758      0.00000
     55      10.1901      0.00000
     56      10.2682      0.00000
     57      10.3579      0.00000
     58      10.4190      0.00000
     59      10.6639      0.00000
     60      10.7662      0.00000
     61      10.8621      0.00000
     62      10.8714      0.00000
     63      10.9047      0.00000
     64      10.9833      0.00000

 k-point   122 :       0.4444   -0.4444    0.3333
  band No.  band energies     occupation 
      1     -38.0626      1.00000
      2     -38.0520      1.00000
      3     -38.0424      1.00000
      4     -38.0311      1.00000
      5     -18.4305      1.00000
      6     -18.4223      1.00000
      7     -18.3883      1.00000
      8     -18.3837      1.00000
      9     -18.3833      1.00000
     10     -18.3700      1.00000
     11     -18.3328      1.00000
     12     -18.3214      1.00000
     13     -18.1567      1.00000
     14     -18.1552      1.00000
     15     -18.1537      1.00000
     16     -18.1515      1.00000
     17     -10.9914      1.00000
     18     -10.9683      1.00000
     19     -10.3205      1.00000
     20     -10.2982      1.00000
     21      -4.3995      1.00000
     22      -4.3962      1.00000
     23      -4.3735      1.00000
     24      -4.3703      1.00000
     25      -4.3098      1.00000
     26      -4.2838      1.00000
     27      -4.1140      1.00000
     28      -4.0900      1.00000
     29      -4.0890      1.00000
     30      -4.0631      1.00000
     31      -0.0754      1.00000
     32      -0.0065      1.00000
     33       0.5850      1.00000
     34       0.6114      1.00000
     35       0.6463      1.00000
     36       0.6841      1.00000
     37       1.0153      1.00000
     38       1.0315      1.00000
     39       1.6862      1.00000
     40       1.7553      1.00000
     41       1.8975      1.00000
     42       1.9612      1.00000
     43       4.6469      0.00000
     44       4.6730      0.00000
     45       5.3462      0.00000
     46       5.4270      0.00000
     47       6.7878      0.00000
     48       6.8097      0.00000
     49       7.5552      0.00000
     50       7.6544      0.00000
     51       8.6649      0.00000
     52       8.6977      0.00000
     53       9.3214      0.00000
     54       9.3774      0.00000
     55      10.1901      0.00000
     56      10.2682      0.00000
     57      10.3568      0.00000
     58      10.4199      0.00000
     59      10.6637      0.00000
     60      10.7662      0.00000
     61      10.8622      0.00000
     62      10.8714      0.00000
     63      10.9046      0.00000
     64      10.9834      0.00000


--------------------------------------------------------------------------------------------------------


 soft charge-density along one line, spin component           1
         0         1         2         3         4         5         6         7         8         9
 total charge-density along one line
 
 soft charge-density along one line, spin component           2
         0         1         2         3         4         5         6         7         8         9
 total charge-density along one line
 
 pseudopotential strength for first ion, spin component:           1
-10.247  -0.000   0.000   0.000   0.000 -10.586  -0.000   0.000
 -0.000 -10.175   0.000  -0.000  -0.000  -0.000 -10.511   0.000
  0.000   0.000 -10.128  -0.000   0.000   0.000   0.000 -10.478
  0.000  -0.000  -0.000 -10.175  -0.000   0.000  -0.000  -0.000
  0.000  -0.000   0.000  -0.000 -10.245   0.000  -0.000   0.000
-10.586  -0.000   0.000   0.000   0.000 -10.852  -0.000   0.000
 -0.000 -10.511   0.000  -0.000  -0.000  -0.000 -10.774   0.000
  0.000   0.000 -10.478  -0.000   0.000   0.000   0.000 -10.754
  0.000  -0.000  -0.000 -10.511  -0.000   0.000  -0.000  -0.000
  0.000  -0.000   0.000  -0.000 -10.584   0.000  -0.000   0.000
 -0.000   0.000   0.031  -0.000  -0.000  -0.000   0.000   0.030
 -0.000   0.000   0.053  -0.000  -0.000  -0.000   0.000   0.050
  0.000   0.000   0.000   0.000   0.000   0.000   0.000   0.000
  0.000  -0.000   0.000   0.000  -0.000   0.000  -0.000   0.000
 -0.000   0.000  -0.000   0.000   0.000  -0.000   0.000  -0.000
  0.000   0.000   0.000   0.000   0.000   0.000   0.000   0.000
  0.000  -0.000   0.000   0.000  -0.000   0.000  -0.000   0.000
 -0.000   0.000  -0.000   0.000   0.000  -0.000   0.000  -0.000
 pseudopotential strength for first ion, spin component:           2
-10.247  -0.000   0.000  -0.000  -0.000 -10.586  -0.000   0.000
 -0.000 -10.175   0.000   0.000   0.000  -0.000 -10.511   0.000
  0.000   0.000 -10.128  -0.000   0.000   0.000   0.000 -10.478
 -0.000   0.000  -0.000 -10.175  -0.000  -0.000   0.000  -0.000
 -0.000   0.000   0.000  -0.000 -10.245  -0.000   0.000   0.000
-10.586  -0.000   0.000  -0.000  -0.000 -10.852  -0.000   0.000
 -0.000 -10.511   0.000   0.000   0.000  -0.000 -10.774   0.000
  0.000   0.000 -10.478  -0.000   0.000   0.000   0.000 -10.754
 -0.000   0.000  -0.000 -10.511  -0.000  -0.000   0.000  -0.000
 -0.000   0.000   0.000  -0.000 -10.584  -0.000  -0.000   0.000
 -0.000   0.000   0.031  -0.000  -0.000  -0.000   0.000   0.030
 -0.000   0.000   0.053  -0.000  -0.000  -0.000   0.000   0.050
  0.000   0.000  -0.000   0.000  -0.000   0.000   0.000  -0.000
  0.000  -0.000   0.000   0.000  -0.000   0.000  -0.000   0.000
  0.000   0.000  -0.000   0.000   0.000   0.000   0.000  -0.000
  0.000   0.000  -0.000   0.000  -0.000   0.000   0.000  -0.000
  0.000  -0.000   0.000   0.000  -0.000   0.000  -0.000   0.000
  0.000   0.000  -0.000   0.000   0.000   0.000   0.000  -0.000
 total augmentation occupancy for first ion, spin component:           1
  2.167   0.000  -0.000   0.000  -0.000  -0.103  -0.000   0.000  -0.000   0.000   0.000   0.000  -0.000  -0.000  -0.000   0.000
  0.000   5.510   0.000   0.000  -0.000  -0.000  -3.251  -0.000  -0.000   0.000  -0.000   0.000   0.001  -0.000   0.000   0.000
 -0.000   0.000   4.665   0.000   0.000  -0.000  -0.000  -3.368  -0.000  -0.000  -3.030   0.791  -0.000  -0.001  -0.000   0.000
  0.000   0.000   0.000   5.510  -0.000  -0.000  -0.000  -0.000  -3.251   0.000   0.000   0.000   0.000   0.000   0.001  -0.000
 -0.000  -0.000   0.000  -0.000   2.426   0.000   0.000  -0.000   0.000  -0.298  -0.000   0.000   0.000   0.000  -0.000  -0.000
 -0.103  -0.000  -0.000  -0.000   0.000   0.026   0.000  -0.000   0.000  -0.000  -0.000   0.000   0.000   0.000   0.000  -0.000
 -0.000  -3.251  -0.000  -0.000   0.000   0.000   2.982   0.000   0.000  -0.000   0.000  -0.000  -0.001   0.000  -0.000  -0.000
  0.000  -0.000  -3.368  -0.000  -0.000  -0.000   0.000   3.998   0.000   0.000   3.150  -0.973   0.000   0.001   0.000  -0.000
 -0.000  -0.000  -0.000  -3.251   0.000   0.000   0.000   0.000   2.982  -0.000  -0.000  -0.000  -0.000  -0.000  -0.001   0.000
  0.000   0.000  -0.000   0.000  -0.298  -0.000  -0.000   0.000  -0.000   0.160   0.000  -0.000  -0.000  -0.000  -0.000   0.000
  0.000  -0.000  -3.030   0.000  -0.000  -0.000   0.000   3.150  -0.000   0.000   3.460  -0.873   0.000   0.000  -0.000  -0.000
  0.000   0.000   0.791   0.000   0.000   0.000  -0.000  -0.973  -0.000  -0.000  -0.873   0.289  -0.000  -0.000  -0.000   0.000
 -0.000   0.001  -0.000   0.000   0.000   0.000  -0.001   0.000  -0.000  -0.000   0.000  -0.000   0.254   0.000  -0.000  -0.037
 -0.000  -0.000  -0.001   0.000   0.000   0.000   0.000   0.001  -0.000  -0.000   0.000  -0.000   0.000   1.053  -0.000  -0.000
 -0.000   0.000  -0.000   0.001  -0.000   0.000  -0.000   0.000  -0.001  -0.000  -0.000  -0.000  -0.000  -0.000   0.254   0.000
  0.000   0.000   0.000  -0.000  -0.000  -0.000  -0.000  -0.000   0.000   0.000  -0.000   0.000  -0.037  -0.000   0.000   0.006
  0.000   0.000   0.000   0.000   0.000  -0.000  -0.000  -0.000  -0.000   0.000  -0.000   0.000  -0.000  -0.236  -0.000   0.000
  0.000  -0.000   0.000   0.000   0.000  -0.000   0.000  -0.000  -0.000   0.000   0.000  -0.000   0.000  -0.000  -0.037  -0.000
 total augmentation occupancy for first ion, spin component:           2
  0.000  -0.000  -0.000  -0.000  -0.000  -0.000   0.000   0.000   0.000   0.000   0.000  -0.000  -0.000   0.000  -0.000  -0.000
 -0.000   0.000  -0.000   0.000   0.000   0.000  -0.000   0.000  -0.000  -0.000   0.000  -0.000   0.000  -0.000  -0.000   0.000
 -0.000  -0.000  -0.000  -0.000   0.000   0.000   0.000   0.000   0.000  -0.000   0.000  -0.000  -0.000  -0.000  -0.000  -0.000
 -0.000   0.000  -0.000   0.000  -0.000   0.000  -0.000   0.000  -0.000   0.000   0.000  -0.000   0.000  -0.000   0.000  -0.000
 -0.000   0.000   0.000  -0.000   0.000   0.000  -0.000  -0.000   0.000  -0.000  -0.000  -0.000   0.000  -0.000   0.000  -0.000
 -0.000   0.000   0.000   0.000   0.000   0.000  -0.000  -0.000  -0.000  -0.000  -0.000   0.000   0.000  -0.000   0.000  -0.000
  0.000  -0.000   0.000  -0.000  -0.000  -0.000   0.000  -0.000   0.000   0.000  -0.000   0.000  -0.000   0.000   0.000  -0.000
  0.000   0.000   0.000   0.000  -0.000  -0.000  -0.000  -0.000  -0.000   0.000  -0.000   0.000  -0.000   0.000   0.000   0.000
  0.000  -0.000   0.000  -0.000   0.000  -0.000   0.000  -0.000   0.000  -0.000  -0.000   0.000  -0.000   0.000  -0.000   0.000
  0.000  -0.000  -0.000   0.000  -0.000  -0.000   0.000   0.000  -0.000   0.000   0.000  -0.000  -0.000   0.000   0.000   0.000
  0.000   0.000   0.000   0.000  -0.000  -0.000  -0.000  -0.000  -0.000   0.000   0.000   0.000  -0.000   0.000   0.000   0.000
 -0.000  -0.000  -0.000  -0.000  -0.000   0.000   0.000   0.000   0.000  -0.000   0.000  -0.000  -0.000  -0.000  -0.000  -0.000
 -0.000   0.000  -0.000   0.000   0.000   0.000  -0.000  -0.000  -0.000  -0.000  -0.000  -0.000   0.000   0.000  -0.000  -0.000
  0.000  -0.000  -0.000  -0.000  -0.000  -0.000   0.000   0.000   0.000   0.000   0.000  -0.000   0.000  -0.000  -0.000  -0.000
 -0.000  -0.000  -0.000   0.000   0.000   0.000   0.000   0.000  -0.000   0.000   0.000  -0.000  -0.000  -0.000   0.000   0.000
 -0.000   0.000  -0.000  -0.000  -0.000  -0.000  -0.000   0.000   0.000   0.000   0.000  -0.000  -0.000  -0.000   0.000   0.000
 -0.000   0.000   0.000  -0.000  -0.000   0.000  -0.000  -0.000  -0.000   0.000  -0.000   0.000  -0.000   0.000   0.000   0.000
  0.000  -0.000   0.000   0.000  -0.000  -0.000   0.000  -0.000  -0.000  -0.000  -0.000   0.000   0.000   0.000  -0.000  -0.000


------------------------ aborting loop because EDIFF is reached ----------------------------------------


 


 total charge     
 
# of ion       s       p       d       tot
------------------------------------------
    1        0.694   0.643   9.761  11.098
    2        0.694   0.642   9.761  11.097
    3        2.040   5.873   0.277   8.190
    4        2.040   5.872   0.275   8.188
    5        2.040   5.872   0.276   8.188
    6        2.040   5.872   0.276   8.189
    7        1.255   2.423   0.000   3.678
    8        1.255   2.422   0.000   3.677
    9        1.255   2.422   0.000   3.677
   10        1.255   2.422   0.000   3.677
--------------------------------------------------
tot         14.568  34.463  20.626  69.657
 


 magnetization (x)
 
# of ion       s       p       d       tot
------------------------------------------
    1        0.000   0.000  -0.000   0.000
    2        0.000   0.000  -0.000   0.000
    3        0.000   0.000   0.000   0.000
    4        0.000   0.000   0.000   0.000
    5        0.000   0.000   0.000   0.000
    6        0.000   0.000   0.000   0.000
    7       -0.000  -0.000   0.000  -0.000
    8       -0.000  -0.000   0.000  -0.000
    9       -0.000  -0.000   0.000  -0.000
   10       -0.000  -0.000   0.000  -0.000
--------------------------------------------------
tot          0.000  -0.000   0.000  -0.000
 
    CHARGE:  cpu time    0.1288: real time    0.1291
    FORLOC:  cpu time    0.0007: real time    0.0007
    FORNL :  cpu time    0.6853: real time    0.6863
    STRESS:  cpu time   19.8653: real time   19.9032
    FORCOR:  cpu time    0.0291: real time    0.0293
    FORHAR:  cpu time    0.0025: real time    0.0026
    MIXING:  cpu time    0.0006: real time    0.0006
    OFIELD:  cpu time    0.0002: real time    0.0003

  FORCE on cell =-STRESS in cart. coord.  units (eV):
  Direction    XX          YY          ZZ          XY          YZ          ZX
  --------------------------------------------------------------------------------------
  Alpha Z   451.66504   451.66504   451.66504
  Ewald   -2313.89006 -2313.88560 -1362.85125    -0.00001     0.00002    -0.33554
  Hartree   580.81856   580.82131  1108.85728    -0.00000     0.00002    -0.23147
  E(xc)    -437.28176  -437.28155  -437.76512    -0.00000     0.00000    -0.00018
  Local     720.41021   720.40278  -710.36246     0.00001    -0.00004     0.57774
  n-local  -256.44922  -256.44931  -243.30669     0.00000     0.00000    -0.00028
  augment   209.90962   209.91174   203.26871    -0.00000    -0.00000     0.00154
  Kinetic  1044.84907  1044.84983   990.63178    -0.00000    -0.00000    -0.00217
  Fock        0.00000     0.00000     0.00000     0.00000     0.00000     0.00000
  -------------------------------------------------------------------------------------
  Total       0.03146     0.03424     0.13730     0.00000     0.00000     0.00965
  in kB       0.31600     0.34385     1.37888     0.00000     0.00001     0.09691
  external pressure =        0.68 kB  Pullay stress =        0.00 kB


 VOLUME and BASIS-vectors are now :
 -----------------------------------------------------------------------------
  energy-cutoff  :      520.00
  volume of cell :      159.53
      direct lattice vectors                 reciprocal lattice vectors
     3.574043013  0.000000006 -0.000000042     0.279795178 -0.000000001  0.000000003
     0.000000007  3.574042987 -0.000000007    -0.000000001  0.279795180  0.000000001
    -0.000000145 -0.000000025 12.488892887     0.000000001  0.000000000  0.080071149

  length of vectors
     3.574043013  3.574042987 12.488892887     0.279795178  0.279795180  0.080071149


 FORCES acting on ions
    electron-ion (+dipol)            ewald-force                    non-local-force                 convergence-correction
 -----------------------------------------------------------------------------------------------
   -.705E-02 0.902E-05 0.130E+01   0.553E-02 -.892E-05 -.135E+01   0.123E-02 0.159E-06 0.319E-01   -.265E-06 -.307E-06 -.806E-05
   0.153E+00 -.110E-04 0.187E+00   -.154E+00 0.107E-04 -.224E+00   -.104E-02 0.278E-06 0.228E-01   -.171E-05 0.448E-07 -.574E-05
   -.540E+00 0.160E-04 -.256E+02   0.533E+00 -.155E-04 0.232E+02   0.205E-01 -.723E-06 0.245E+01   -.255E-06 0.428E-07 -.534E-04
   -.566E-02 0.922E-05 0.225E+02   0.568E-02 -.924E-05 -.200E+02   0.708E-04 -.279E-06 -.247E+01   -.193E-06 0.181E-06 0.473E-04
   0.363E-03 0.571E-06 -.203E+02   -.357E-03 -.372E-06 0.178E+02   0.886E-05 -.397E-06 0.250E+01   -.109E-06 -.305E-06 -.525E-04
   0.984E-01 -.222E-04 0.217E+02   -.105E+00 0.213E-04 -.193E+02   0.275E-02 0.132E-05 -.249E+01   0.372E-06 0.614E-07 0.626E-04
   -.621E-01 0.893E-05 -.989E+02   0.676E-01 -.864E-05 0.109E+03   -.648E-02 -.514E-06 -.102E+02   -.964E-07 0.559E-07 -.590E-04
   -.390E-03 -.753E-06 0.100E+03   0.195E-03 0.718E-06 -.111E+03   0.310E-03 -.115E-06 0.102E+02   -.292E-07 0.128E-06 0.639E-04
   0.353E-02 -.603E-05 -.994E+02   -.350E-02 0.611E-05 0.110E+03   -.123E-03 0.869E-07 -.101E+02   -.539E-07 -.292E-07 -.682E-04
   0.343E+00 -.426E-05 0.980E+02   -.350E+00 0.384E-05 -.108E+03   0.227E-02 0.750E-06 0.101E+02   -.810E-07 0.115E-07 0.646E-04
 -----------------------------------------------------------------------------------------------
   -.181E-01 -.437E-06 0.109E-01   0.855E-14 0.549E-14 -.284E-13   0.195E-01 0.570E-06 -.733E-02   -.242E-05 -.114E-06 -.860E-05
 
 
 POSITION                                       TOTAL-FORCE (eV/Angst)
 -----------------------------------------------------------------------------------
      3.57404      0.00000      0.00000        -0.000391     -0.000000     -0.012332
      1.78702      1.78702      6.24445        -0.002285      0.000000     -0.015772
      3.57129      3.57404      4.20623         0.013354     -0.000000      0.088223
      0.00000      0.00000      8.27305        -0.000046     -0.000000     -0.013588
      1.78702      1.78702     10.46029        -0.000124     -0.000001     -0.011694
      1.78702      1.78702      2.02860        -0.003958      0.000001     -0.007742
      3.57404      0.00000      1.82057        -0.001166     -0.000000     -0.017705
      3.57404     -0.00000     10.66832        -0.000023     -0.000000      0.012376
      1.78702      1.78702      8.06502        -0.000224      0.000000      0.015049
      1.78702      1.78702      4.42387        -0.005137      0.000000     -0.036815
 -----------------------------------------------------------------------------------
    total drift:                                0.001389      0.000000      0.003543


--------------------------------------------------------------------------------------------------------



  FREE ENERGIE OF THE ION-ELECTRON SYSTEM (eV)
  ---------------------------------------------------
  free  energy   TOTEN  =      -111.54182963 eV

  energy  without entropy=     -111.54182963  energy(sigma->0) =     -111.54182963
 


--------------------------------------------------------------------------------------------------------


    POTLOK:  cpu time    0.9802: real time    0.9813


--------------------------------------------------------------------------------------------------------


     LOOP+:  cpu time  298.3395: real time  299.2916
    4ORBIT:  cpu time    0.0000: real time    0.0000
 


 total charge     
 
# of ion       s       p       d       tot
------------------------------------------
    1        0.694   0.643   9.761  11.098
    2        0.694   0.642   9.761  11.097
    3        2.040   5.873   0.277   8.190
    4        2.040   5.872   0.275   8.188
    5        2.040   5.872   0.276   8.188
    6        2.040   5.872   0.276   8.189
    7        1.255   2.423   0.000   3.678
    8        1.255   2.422   0.000   3.677
    9        1.255   2.422   0.000   3.677
   10        1.255   2.422   0.000   3.677
--------------------------------------------------
tot         14.568  34.463  20.626  69.657
 


 magnetization (x)
 
# of ion       s       p       d       tot
------------------------------------------
    1        0.000   0.000  -0.000   0.000
    2        0.000   0.000  -0.000   0.000
    3        0.000   0.000   0.000   0.000
    4        0.000   0.000   0.000   0.000
    5        0.000   0.000   0.000   0.000
    6        0.000   0.000   0.000   0.000
    7       -0.000  -0.000   0.000  -0.000
    8       -0.000  -0.000   0.000  -0.000
    9       -0.000  -0.000   0.000  -0.000
   10       -0.000  -0.000   0.000  -0.000
--------------------------------------------------
tot          0.000  -0.000   0.000  -0.000
 

 total amount of memory used by VASP MPI-rank0   111221. kBytes
=======================================================================

   base      :      30000. kBytes
   nonl-proj :      58361. kBytes
   fftplans  :        935. kBytes
   grid      :       3843. kBytes
   one-center:         93. kBytes
   wavefun   :      17989. kBytes
 
  
  
 General timing and accounting informations for this job:
 ========================================================
  
                  Total CPU time used (sec):      309.411
                            User time (sec):      301.527
                          System time (sec):        7.884
                         Elapsed time (sec):      310.723
  
                   Maximum memory used (kb):      180904.
                   Average memory used (kb):           0.
  
                          Minor page faults:        40373
                          Major page faults:            0
                 Voluntary context switches:          748
