5    
15   

1    
  0.0099999999856190  -0.0000005306093446   0.0000000779360543
  -0.0710151600    0.0005439200    0.0000102900
   0.0135700200   -0.0014890600    0.0207668200
   0.0099881100    0.0012033200   -0.0207775100
   0.0241667500   -0.0007621800   -0.0295815600
   0.0232902700    0.0005040000    0.0295819600

1    
 -0.0050008252204810   0.0086597775441508  -0.0000000048329416
   0.0359845100   -0.0612025800   -0.0000648300
  -0.0041927200    0.0088290300    0.0207800700
  -0.0078362800    0.0114147500   -0.0207680500
  -0.0113775400    0.0201263100   -0.0295508700
  -0.0125779700    0.0208324800    0.0296036800

1    
  0.0000000779136501   0.0000000392493938   0.0099999999996194
   0.0000168300   -0.0000381600   -0.0662095700
   0.0017969300   -0.0013091500    0.0447936900
  -0.0017882800    0.0013139700    0.0032941800
   0.0004339900   -0.0004356500   -0.0204642200
  -0.0004594700    0.0004689800    0.0385859200

2    
  0.0099999999856190  -0.0000005306093446   0.0000000779360543
   0.0137576400   -0.0048324700   -0.0001444200
  -0.0973018900    0.0188155300    0.0207912300
   0.0148510600   -0.0035904600   -0.0212932300
   0.0103688300   -0.0052639600   -0.0294748400
   0.0583243600   -0.0051286400    0.0301212500

2    
 -0.0099999999856190   0.0000005306093446  -0.0000000779360543
  -0.0132859700   -0.0032246800   -0.0000788900
   0.0990998600    0.0124513100    0.0204761200
  -0.0179705500   -0.0019913200   -0.0212218900
  -0.0090114900   -0.0036553500   -0.0293985500
  -0.0588318400   -0.0035799700    0.0302232100

2    
 -0.0050008252204810   0.0086597775441508  -0.0000000048329416
  -0.0038791800    0.0130941600   -0.0001906900
   0.0386287200   -0.0923978600    0.0209443300
  -0.0070499400    0.0169495200   -0.0213431400
  -0.0015376800    0.0093142700   -0.0295220600
  -0.0261619200    0.0530399100    0.0301115600

2    
  0.0050008252204810  -0.0086597775441508   0.0000000048329416
   0.0110876300   -0.0094558500   -0.0002393300
  -0.0652871300    0.0742692900    0.0209305900
   0.0107979900   -0.0106023200   -0.0211492900
   0.0095969300   -0.0065959400   -0.0295583200
   0.0338045800   -0.0476151800    0.0300163500

2    
  0.0000000779136501   0.0000000392493938   0.0099999999996194
   0.0001275100   -0.0001282700    0.0202734800
   0.0012992000   -0.0008213800   -0.0230090600
  -0.0016513300    0.0011776100   -0.0277558100
   0.0005718600   -0.0005800800   -0.0066022000
  -0.0003472300    0.0003521200    0.0370935900

2    
 -0.0000000779136501  -0.0000000392493938  -0.0099999999996194
   0.0000558600    0.0000944000   -0.0232033000
   0.0016474000   -0.0017300300    0.0698023900
  -0.0017469100    0.0014108600   -0.0166491900
   0.0004966000   -0.0003543200   -0.0505874800
  -0.0004529500    0.0005790900    0.0206375700

4    
  0.0099999999856190  -0.0000005306093446   0.0000000779360543
   0.0165874100    0.0003039600   -0.0000366400
   0.0026699300   -0.0011700200    0.0208982600
   0.0457013500    0.0007573400   -0.0201813900
  -0.0712660200   -0.0004764500   -0.0305679400
   0.0063073300    0.0005851700    0.0298877100

4    
 -0.0099999999856190   0.0000005306093446  -0.0000000779360543
  -0.0165913500    0.0002924600   -0.0000026000
   0.0009074200   -0.0011606300    0.0208958400
  -0.0492669600    0.0006715600   -0.0201854300
   0.0721478100   -0.0004096600   -0.0305998700
  -0.0071969200    0.0006062800    0.0298920500

4    
 -0.0050008252204810   0.0086597775441508  -0.0000000048329416
  -0.0085492500    0.0142268700    0.0000009500
   0.0012195000   -0.0006157500    0.0208992200
  -0.0249788900    0.0427499800   -0.0201771800
   0.0362626000   -0.0625871800   -0.0306159400
  -0.0039539700    0.0062260800    0.0298929400

4    
  0.0050008252204810  -0.0086597775441508   0.0000000048329416
   0.0080286000   -0.0145279200   -0.0000371800
   0.0021068500   -0.0021507100    0.0208964100
   0.0224434800   -0.0395431800   -0.0201855800
  -0.0353936800    0.0616898800   -0.0305636500
   0.0028147500   -0.0054680700    0.0298900000

4    
  0.0000000779136501   0.0000000392493938   0.0099999999996194
  -0.0000125300    0.0000134600    0.0071857100
   0.0017871500   -0.0013068800    0.0458705200
  -0.0017841800    0.0013044600   -0.0123171700
   0.0004555700   -0.0004671600   -0.1025696100
  -0.0004460000    0.0004561200    0.0618305500

4    
 -0.0000000779136501  -0.0000000392493938  -0.0099999999996194
   0.0000105300   -0.0000142200   -0.0088889800
   0.0017955400   -0.0013159100   -0.0028875400
  -0.0017958500    0.0013147400   -0.0314273000
   0.0004293800   -0.0004291000    0.0465936400
  -0.0004396000    0.0004445000   -0.0033898200
