 vasp.6.1.2 22Jul20 (build Apr 14 2021 21:39:43) complex                        
  
 executed on             LinuxIFC date 2022.12.02  18:26:24
 running on   64 total cores
 distrk:  each k-point on   64 cores,    1 groups
 distr:  one band on NCORE=   4 cores,   16 groups


--------------------------------------------------------------------------------------------------------


 INCAR:
 POTCAR:    PAW_PBE Sr_sv 07Sep2000               
 POTCAR:    PAW_PBE Zn 06Sep2000                  
 POTCAR:    PAW_PBE N 08Apr2002                   
 POTCAR:    PAW_PBE Sr_sv 07Sep2000               
   SHA256 =  a8389d3481648516ee67182ee030b298d280b37e29cbbf2d8595f040d757c710 Sr_sv/POTCAR          
   COPYR  = (c) Copyright 07Sep2000 Georg Kresse                                                    
   COPYR  = This file is part of the software VASP. Any use, copying, and all other rights are regul
   COPYR  = If you do not have a valid VASP license, you may not use, copy or distribute this file. 
   VRHFIN =Sr: 4s4p5s                                                                               
   LEXCH  = PE                                                                                      
   EATOM  =   843.0319 eV,   61.9611 Ry                                                             
                                                                                                    
   TITEL  = PAW_PBE Sr_sv 07Sep2000                                                                 
   LULTRA =        F    use ultrasoft PP ?                                                          
   IUNSCR =        1    unscreen: 0-lin 1-nonlin 2-no                                               
   RPACOR =    2.200    partial core radius                                                         
   POMASS =   87.620; ZVAL   =   10.000    mass and valenz                                          
   RCORE  =    2.500    outmost cutoff radius                                                       
   RWIGS  =    4.040; RWIGS  =    2.138    wigner-seitz radius (au A)                               
   ENMAX  =  229.353; ENMIN  =  172.014 eV                                                          
   RCLOC  =    2.201    cutoff for local pot                                                        
   LCOR   =        T    correct aug charges                                                         
   LPAW   =        T    paw PP                                                                      
   EAUG   =  366.804                                                                                
   DEXC   =    0.000                                                                                
   RMAX   =    2.547    core radius for proj-oper                                                   
   RAUG   =    1.300    factor for augmentation sphere                                              
   RDEP   =    2.562    radius for radial grids                                                     
   RDEPT  =    2.128    core radius for aug-charge                                                  
                                                                                                    
   Atomic configuration                                                                             
   10 entries                                                                                       
     n  l   j            E        occ.                                                              
     1  0  0.50    -15934.8930   2.0000                                                             
     2  0  0.50     -2157.6250   2.0000                                                             
     2  1  1.50     -1917.0034   6.0000                                                             
     3  0  0.50      -333.7288   2.0000                                                             
     3  1  1.50      -256.0992   6.0000                                                             
     3  2  2.50      -127.9971  10.0000                                                             
     4  0  0.50       -40.8953   2.0000                                                             
     5  0  0.50        -3.5257   1.9990                                                             
     4  1  1.50       -22.8179   6.0000                                                             
     4  2  1.50        -1.2815   0.0010                                                             
   Description                                                                                      
     l       E           TYP  RCUT    TYP  RCUT                                                     
     0    -40.8953213     23  2.480                                                                 
     0     -3.5257161     23  2.480                                                                 
     1    -22.8178632     23  2.500                                                                 
     1    -24.1784458     23  2.500                                                                 
     2     -1.2814598     23  2.500                                                                 
     2      0.2279365     23  2.500                                                                 
  local pseudopotential read in
  partial core-charges read in
  partial kinetic energy density read in
  atomic valenz-charges read in
  non local Contribution for L=           0  read in
    real space projection operators read in
  non local Contribution for L=           0  read in
    real space projection operators read in
  non local Contribution for L=           1  read in
    real space projection operators read in
  non local Contribution for L=           1  read in
    real space projection operators read in
  non local Contribution for L=           2  read in
    real space projection operators read in
  non local Contribution for L=           2  read in
    real space projection operators read in
    PAW grid and wavefunctions read in
 
   number of l-projection  operators is LMAX  =           6
   number of lm-projection operators is LMMAX =          18
 
 POTCAR:    PAW_PBE Zn 06Sep2000                  
   SHA256 =  501fddbd8274dd8e9725d4f3de27861d7f1e553a7e18441bc79fed8f346e7f23 Zn/POTCAR             
   COPYR  = (c) Copyright 06Sep2000 Georg Kresse                                                    
   COPYR  = This file is part of the software VASP. Any use, copying, and all other rights are regul
   COPYR  = If you do not have a valid VASP license, you may not use, copy or distribute this file. 
   VRHFIN =Zn: d10 p2                                                                               
   LEXCH  = PE                                                                                      
   EATOM  =  1748.8345 eV,  128.5357 Ry                                                             
                                                                                                    
   TITEL  = PAW_PBE Zn 06Sep2000                                                                    
   LULTRA =        F    use ultrasoft PP ?                                                          
   IUNSCR =        1    unscreen: 0-lin 1-nonlin 2-no                                               
   RPACOR =    2.000    partial core radius                                                         
   POMASS =   65.390; ZVAL   =   12.000    mass and valenz                                          
   RCORE  =    2.300    outmost cutoff radius                                                       
   RWIGS  =    2.400; RWIGS  =    1.270    wigner-seitz radius (au A)                               
   ENMAX  =  276.723; ENMIN  =  207.542 eV                                                          
   RCLOC  =    1.828    cutoff for local pot                                                        
   LCOR   =        T    correct aug charges                                                         
   LPAW   =        T    paw PP                                                                      
   EAUG   =  575.892                                                                                
   DEXC   =    0.000                                                                                
   RMAX   =    2.347    core radius for proj-oper                                                   
   RAUG   =    1.300    factor for augmentation sphere                                              
   RDEP   =    2.324    radius for radial grids                                                     
   RDEPT  =    1.788    core radius for aug-charge                                                  
                                                                                                    
   Atomic configuration                                                                             
    9 entries                                                                                       
     n  l   j            E        occ.                                                              
     1  0  0.50     -9524.6913   2.0000                                                             
     2  0  0.50     -1158.1882   2.0000                                                             
     2  1  1.50     -1003.8506   6.0000                                                             
     3  0  0.50      -129.2194   2.0000                                                             
     3  1  1.50       -83.3890   6.0000                                                             
     3  2  2.50       -10.1410  10.0000                                                             
     4  0  0.50        -5.9785   2.0000                                                             
     4  1  0.50        -4.0817   0.0000                                                             
     4  3  2.50        -1.3606   0.0000                                                             
   Description                                                                                      
     l       E           TYP  RCUT    TYP  RCUT                                                     
     2    -10.1410010     23  2.300                                                                 
     2    -11.5015836     23  2.300                                                                 
     0     -5.9785163     23  2.300                                                                 
     0      1.1858015     23  2.300                                                                 
     1     -2.7211652     23  2.300                                                                 
     1     13.2444212     23  2.300                                                                 
  local pseudopotential read in
  partial core-charges read in
  partial kinetic energy density read in
  atomic valenz-charges read in
  non local Contribution for L=           2  read in
    real space projection operators read in
  non local Contribution for L=           2  read in
    real space projection operators read in
  non local Contribution for L=           0  read in
    real space projection operators read in
  non local Contribution for L=           0  read in
    real space projection operators read in
  non local Contribution for L=           1  read in
    real space projection operators read in
  non local Contribution for L=           1  read in
    real space projection operators read in
    PAW grid and wavefunctions read in
 
   number of l-projection  operators is LMAX  =           6
   number of lm-projection operators is LMMAX =          18
 
 POTCAR:    PAW_PBE N 08Apr2002                   
   SHA256 =  e053789ff3a61a86a1b75d8a110fcc91f86041011e7b0817c7c99e4e8a6349d7 N/POTCAR              
   COPYR  = (c) Copyright 08Apr2002 Georg Kresse                                                    
   COPYR  = This file is part of the software VASP. Any use, copying, and all other rights are regul
   COPYR  = If you do not have a valid VASP license, you may not use, copy or distribute this file. 
   VRHFIN =N: s2p3                                                                                  
   LEXCH  = PE                                                                                      
   EATOM  =   264.5486 eV,   19.4438 Ry                                                             
                                                                                                    
   TITEL  = PAW_PBE N 08Apr2002                                                                     
   LULTRA =        F    use ultrasoft PP ?                                                          
   IUNSCR =        1    unscreen: 0-lin 1-nonlin 2-no                                               
   RPACOR =    1.200    partial core radius                                                         
   POMASS =   14.001; ZVAL   =    5.000    mass and valenz                                          
   RCORE  =    1.500    outmost cutoff radius                                                       
   RWIGS  =    1.400; RWIGS  =    0.741    wigner-seitz radius (au A)                               
   ENMAX  =  400.000; ENMIN  =  300.000 eV                                                          
   ICORE  =        2    local potential                                                             
   LCOR   =        T    correct aug charges                                                         
   LPAW   =        T    paw PP                                                                      
   EAUG   =  627.112                                                                                
   DEXC   =    0.000                                                                                
   RMAX   =    1.529    core radius for proj-oper                                                   
   RAUG   =    1.300    factor for augmentation sphere                                              
   RDEP   =    1.514    radius for radial grids                                                     
   RDEPT  =    1.338    core radius for aug-charge                                                  
                                                                                                    
   Atomic configuration                                                                             
    4 entries                                                                                       
     n  l   j            E        occ.                                                              
     1  0  0.50      -384.7179   2.0000                                                             
     2  0  0.50       -18.5828   2.0000                                                             
     2  1  0.50        -7.0898   3.0000                                                             
     3  2  1.50        -6.8029   0.0000                                                             
   Description                                                                                      
     l       E           TYP  RCUT    TYP  RCUT                                                     
     0    -18.5828119     23  1.200                                                                 
     0    -13.5018863     23  1.200                                                                 
     1     -7.0897853     23  1.500                                                                 
     1      9.5240782     23  1.500                                                                 
     2     -6.8029130      7  1.500                                                                 
  local pseudopotential read in
  partial core-charges read in
  partial kinetic energy density read in
  atomic valenz-charges read in
  non local Contribution for L=           0  read in
    real space projection operators read in
  non local Contribution for L=           0  read in
    real space projection operators read in
  non local Contribution for L=           1  read in
    real space projection operators read in
  non local Contribution for L=           1  read in
    real space projection operators read in
    PAW grid and wavefunctions read in
 
   number of l-projection  operators is LMAX  =           4
   number of lm-projection operators is LMMAX =           8
 
  PAW_PBE Sr_sv 07Sep2000               :
 energy of atom  1       EATOM= -843.0319
 kinetic energy error for atom=    0.0010 (will be added to EATOM!!)
  PAW_PBE Zn 06Sep2000                  :
 energy of atom  2       EATOM=-1748.8345
 kinetic energy error for atom=    0.0029 (will be added to EATOM!!)
  PAW_PBE N 08Apr2002                   :
 energy of atom  3       EATOM= -264.5486
 kinetic energy error for atom=    0.0125 (will be added to EATOM!!)
 
 
 POSCAR: generated by phonopy
  positions in direct lattice
  No initial velocities read in

 METAGGA = SCAN     LMAXTAU =  6    LMIXTAU =  F

 exchange correlation table for  LEXCH =        8
   RHO(1)=    0.500       N(1)  =     2000
   RHO(2)=  100.500       N(2)  =     4000
 


--------------------------------------------------------------------------------------------------------


 ion  position               nearest neighbor table
   1  0.000  1.000  0.342-   7 2.54  10 2.73  10 2.73  10 2.73  10 2.73   6 3.39   6 3.39   6 3.39
                             6 3.39   4 3.59   4 3.59   4 3.59   4 3.59   2 4.04
   2  0.000  0.000  0.658-   8 2.55   9 2.73   9 2.73   9 2.73   9 2.73   6 3.39   6 3.39   6 3.39
                             6 3.39   3 3.59   3 3.59   3 3.59   3 3.59   1 4.04
   3  0.500  0.500  0.842-   9 2.54   8 2.73   8 2.73   8 2.73   8 2.73   5 3.39   5 3.39   5 3.39
                             5 3.39   2 3.59   2 3.59   2 3.59   2 3.59   4 4.04
   4  0.500  0.500  0.158-  10 2.54   7 2.73   7 2.73   7 2.73   7 2.73   5 3.39   5 3.39   5 3.39
                             5 3.39   1 3.59   1 3.59   1 3.59   1 3.59   3 4.04
   5  1.000  0.000  0.000-   8 1.81   7 1.82   4 3.39   4 3.39   4 3.39   4 3.39   3 3.39   3 3.39
                             3 3.39   3 3.39
   6  0.500  0.500  0.500-  10 1.82   9 1.82   1 3.39   1 3.39   1 3.39   1 3.39   2 3.39   2 3.39
                             2 3.39   2 3.39
   7  1.000  0.000  0.143-   5 1.82   1 2.54   4 2.73   4 2.73   4 2.73   4 2.73
   8  0.001  0.000  0.858-   5 1.81   2 2.55   3 2.73   3 2.73   3 2.73   3 2.73
   9  0.500  0.500  0.643-   6 1.82   3 2.54   2 2.73   2 2.73   2 2.73   2 2.73
  10  0.500  0.500  0.357-   6 1.82   4 2.54   1 2.73   1 2.73   1 2.73   1 2.73
 

IMPORTANT INFORMATION: All symmetrisations will be switched off!
NOSYMM: (Re-)initialisation of all symmetry stuff for point group C_1.


----------------------------------------------------------------------------------------

                                     Primitive cell                                     

  volume of cell :     189.4114

  direct lattice vectors                    reciprocal lattice vectors
     3.851102821  0.000000006 -0.000000101     0.259665879 -0.000000000  0.000000007
     0.000000007  3.851102715 -0.000000006    -0.000000000  0.259665886  0.000000000
    -0.000000333 -0.000000021 12.771321364     0.000000002  0.000000000  0.078300434

  length of vectors
     3.851102821  3.851102715 12.771321364     0.259665879  0.259665886  0.078300434

  position of ions in fractional coordinates (direct lattice)
     0.000000015  0.999999969  0.341862114
     0.000000070  0.000000002  0.658137891
     0.500000049  0.500000008  0.841862095
     0.500000072  0.499999952  0.158137898
     0.999999990  0.000000014  0.000000255
     0.499999982  0.500000015  0.499999745
     0.999999969  0.000000005  0.142666958
     0.000749612  0.000000014  0.858082487
     0.499999967  0.500000003  0.642667132
     0.499999936  0.500000017  0.357333087

  ion indices of the primitive-cell ions
   primitive index   ion index
                 1           1
                 2           2
                 3           3
                 4           4
                 5           5
                 6           6
                 7           7
                 8           8
                 9           9
                10          10

----------------------------------------------------------------------------------------

 
 
 KPOINTS: Kpoints                                 

Automatic generation of k-mesh.
 generate k-points for:    8    8    3
Space group operators:
 irot       det(A)        alpha          n_x          n_y          n_z        tau_x        tau_y        tau_z
    1     1.000000     0.000000     1.000000     0.000000     0.000000     0.000000     0.000000     0.000000
 
 Subroutine IBZKPT returns following result:
 ===========================================
 
 Found     98 irreducible k-points:
 
 Following reciprocal coordinates:
            Coordinates               Weight
  0.000000  0.000000  0.000000      1.000000
  0.125000  0.000000  0.000000      2.000000
  0.000000  0.125000  0.000000      2.000000
  0.250000  0.000000  0.000000      2.000000
  0.000000  0.250000  0.000000      2.000000
  0.375000 -0.000000  0.000000      2.000000
  0.000000  0.375000 -0.000000      2.000000
  0.500000  0.000000  0.000000      1.000000
  0.000000  0.500000 -0.000000      1.000000
  0.125000  0.125000  0.000000      2.000000
 -0.125000  0.125000  0.000000      2.000000
  0.250000  0.125000  0.000000      2.000000
 -0.125000  0.250000  0.000000      2.000000
 -0.250000  0.125000  0.000000      2.000000
  0.125000  0.250000  0.000000      2.000000
  0.375000  0.125000  0.000000      2.000000
 -0.125000  0.375000 -0.000000      2.000000
 -0.375000  0.125000  0.000000      2.000000
  0.125000  0.375000 -0.000000      2.000000
  0.500000  0.125000  0.000000      2.000000
 -0.125000  0.500000 -0.000000      2.000000
  0.250000  0.250000  0.000000      2.000000
 -0.250000  0.250000  0.000000      2.000000
  0.375000  0.250000  0.000000      2.000000
 -0.250000  0.375000 -0.000000      2.000000
 -0.375000  0.250000  0.000000      2.000000
  0.250000  0.375000 -0.000000      2.000000
  0.500000  0.250000  0.000000      2.000000
 -0.250000  0.500000 -0.000000      2.000000
  0.375000  0.375000 -0.000000      2.000000
 -0.375000  0.375000 -0.000000      2.000000
  0.500000  0.375000 -0.000000      2.000000
 -0.375000  0.500000 -0.000000      2.000000
  0.500000  0.500000 -0.000000      1.000000
  0.000000  0.000000  0.333333      2.000000
  0.125000 -0.000000  0.333333      2.000000
 -0.000000  0.125000  0.333333      2.000000
 -0.125000 -0.000000  0.333333      2.000000
 -0.000000 -0.125000  0.333333      2.000000
  0.250000  0.000000  0.333333      2.000000
 -0.000000  0.250000  0.333333      2.000000
 -0.250000  0.000000  0.333333      2.000000
  0.000000 -0.250000  0.333333      2.000000
  0.375000 -0.000000  0.333333      2.000000
  0.000000  0.375000  0.333333      2.000000
 -0.375000  0.000000  0.333333      2.000000
  0.000000 -0.375000  0.333333      2.000000
  0.500000  0.000000  0.333333      2.000000
 -0.000000  0.500000  0.333333      2.000000
  0.125000  0.125000  0.333333      2.000000
 -0.125000  0.125000  0.333333      2.000000
 -0.125000 -0.125000  0.333333      2.000000
  0.125000 -0.125000  0.333333      2.000000
  0.250000  0.125000  0.333333      2.000000
 -0.125000  0.250000  0.333333      2.000000
 -0.250000 -0.125000  0.333333      2.000000
  0.125000 -0.250000  0.333333      2.000000
 -0.250000  0.125000 -0.333333      2.000000
  0.125000  0.250000 -0.333333      2.000000
  0.250000 -0.125000 -0.333333      2.000000
 -0.125000 -0.250000 -0.333333      2.000000
  0.375000  0.125000  0.333333      2.000000
 -0.125000  0.375000  0.333333      2.000000
 -0.375000 -0.125000  0.333333      2.000000
  0.125000 -0.375000  0.333333      2.000000
 -0.375000  0.125000 -0.333333      2.000000
  0.125000  0.375000 -0.333333      2.000000
  0.375000 -0.125000 -0.333333      2.000000
 -0.125000 -0.375000 -0.333333      2.000000
  0.500000  0.125000  0.333333      2.000000
 -0.125000  0.500000  0.333333      2.000000
  0.500000 -0.125000  0.333333      2.000000
  0.125000  0.500000  0.333333      2.000000
  0.250000  0.250000  0.333333      2.000000
 -0.250000  0.250000  0.333333      2.000000
 -0.250000 -0.250000  0.333333      2.000000
  0.250000 -0.250000  0.333333      2.000000
  0.375000  0.250000  0.333333      2.000000
 -0.250000  0.375000  0.333333      2.000000
 -0.375000 -0.250000  0.333333      2.000000
  0.250000 -0.375000  0.333333      2.000000
 -0.375000  0.250000 -0.333333      2.000000
  0.250000  0.375000 -0.333333      2.000000
  0.375000 -0.250000 -0.333333      2.000000
 -0.250000 -0.375000 -0.333333      2.000000
  0.500000  0.250000  0.333333      2.000000
 -0.250000  0.500000  0.333333      2.000000
  0.500000 -0.250000  0.333333      2.000000
  0.250000  0.500000  0.333333      2.000000
  0.375000  0.375000  0.333333      2.000000
 -0.375000  0.375000  0.333333      2.000000
 -0.375000 -0.375000  0.333333      2.000000
  0.375000 -0.375000  0.333333      2.000000
  0.500000  0.375000  0.333333      2.000000
 -0.375000  0.500000  0.333333      2.000000
  0.500000 -0.375000  0.333333      2.000000
  0.375000  0.500000  0.333333      2.000000
  0.500000  0.500000  0.333333      2.000000
 
 Following cartesian coordinates:
            Coordinates               Weight
  0.000000  0.000000  0.000000      1.000000
  0.032458 -0.000000  0.000000      2.000000
 -0.000000  0.032458  0.000000      2.000000
  0.064916 -0.000000  0.000000      2.000000
 -0.000000  0.064916  0.000000      2.000000
  0.097375 -0.000000  0.000000      2.000000
 -0.000000  0.097375  0.000000      2.000000
  0.129833 -0.000000  0.000000      1.000000
 -0.000000  0.129833  0.000000      1.000000
  0.032458  0.032458  0.000000      2.000000
 -0.032458  0.032458 -0.000000      2.000000
  0.064916  0.032458  0.000000      2.000000
 -0.032458  0.064916 -0.000000      2.000000
 -0.064916  0.032458 -0.000000      2.000000
  0.032458  0.064916  0.000000      2.000000
  0.097375  0.032458  0.000000      2.000000
 -0.032458  0.097375 -0.000000      2.000000
 -0.097375  0.032458 -0.000000      2.000000
  0.032458  0.097375  0.000000      2.000000
  0.129833  0.032458  0.000000      2.000000
 -0.032458  0.129833 -0.000000      2.000000
  0.064916  0.064916  0.000000      2.000000
 -0.064916  0.064916 -0.000000      2.000000
  0.097375  0.064916  0.000000      2.000000
 -0.064916  0.097375 -0.000000      2.000000
 -0.097375  0.064916 -0.000000      2.000000
  0.064916  0.097375  0.000000      2.000000
  0.129833  0.064916  0.000000      2.000000
 -0.064916  0.129833 -0.000000      2.000000
  0.097375  0.097375  0.000000      2.000000
 -0.097375  0.097375 -0.000000      2.000000
  0.129833  0.097375  0.000000      2.000000
 -0.097375  0.129833 -0.000000      2.000000
  0.129833  0.129833  0.000000      1.000000
  0.000000  0.000000  0.026100      2.000000
  0.032458 -0.000000  0.026100      2.000000
  0.000000  0.032458  0.026100      2.000000
 -0.032458  0.000000  0.026100      2.000000
  0.000000 -0.032458  0.026100      2.000000
  0.064916 -0.000000  0.026100      2.000000
  0.000000  0.064916  0.026100      2.000000
 -0.064916  0.000000  0.026100      2.000000
  0.000000 -0.064916  0.026100      2.000000
  0.097375 -0.000000  0.026100      2.000000
  0.000000  0.097375  0.026100      2.000000
 -0.097375  0.000000  0.026100      2.000000
  0.000000 -0.097375  0.026100      2.000000
  0.129833 -0.000000  0.026100      2.000000
  0.000000  0.129833  0.026100      2.000000
  0.032458  0.032458  0.026100      2.000000
 -0.032458  0.032458  0.026100      2.000000
 -0.032458 -0.032458  0.026100      2.000000
  0.032458 -0.032458  0.026100      2.000000
  0.064916  0.032458  0.026100      2.000000
 -0.032458  0.064916  0.026100      2.000000
 -0.064916 -0.032458  0.026100      2.000000
  0.032458 -0.064916  0.026100      2.000000
 -0.064916  0.032458 -0.026100      2.000000
  0.032458  0.064916 -0.026100      2.000000
  0.064916 -0.032458 -0.026100      2.000000
 -0.032458 -0.064916 -0.026100      2.000000
  0.097375  0.032458  0.026100      2.000000
 -0.032458  0.097375  0.026100      2.000000
 -0.097375 -0.032458  0.026100      2.000000
  0.032458 -0.097375  0.026100      2.000000
 -0.097375  0.032458 -0.026100      2.000000
  0.032458  0.097375 -0.026100      2.000000
  0.097375 -0.032458 -0.026100      2.000000
 -0.032458 -0.097375 -0.026100      2.000000
  0.129833  0.032458  0.026100      2.000000
 -0.032458  0.129833  0.026100      2.000000
  0.129833 -0.032458  0.026100      2.000000
  0.032458  0.129833  0.026100      2.000000
  0.064916  0.064916  0.026100      2.000000
 -0.064916  0.064916  0.026100      2.000000
 -0.064916 -0.064916  0.026100      2.000000
  0.064916 -0.064916  0.026100      2.000000
  0.097375  0.064916  0.026100      2.000000
 -0.064916  0.097375  0.026100      2.000000
 -0.097375 -0.064916  0.026100      2.000000
  0.064916 -0.097375  0.026100      2.000000
 -0.097375  0.064916 -0.026100      2.000000
  0.064916  0.097375 -0.026100      2.000000
  0.097375 -0.064916 -0.026100      2.000000
 -0.064916 -0.097375 -0.026100      2.000000
  0.129833  0.064916  0.026100      2.000000
 -0.064916  0.129833  0.026100      2.000000
  0.129833 -0.064916  0.026100      2.000000
  0.064916  0.129833  0.026100      2.000000
  0.097375  0.097375  0.026100      2.000000
 -0.097375  0.097375  0.026100      2.000000
 -0.097375 -0.097375  0.026100      2.000000
  0.097375 -0.097375  0.026100      2.000000
  0.129833  0.097375  0.026100      2.000000
 -0.097375  0.129833  0.026100      2.000000
  0.129833 -0.097375  0.026100      2.000000
  0.097375  0.129833  0.026100      2.000000
  0.129833  0.129833  0.026100      2.000000
 


--------------------------------------------------------------------------------------------------------




 Dimension of arrays:
   k-points           NKPTS =     98   k-points in BZ     NKDIM =     98   number of bands    NBANDS=     64
   number of dos      NEDOS =    301   number of ions     NIONS =     10
   non local maximal  LDIM  =      6   non local SUM 2l+1 LMDIM =     18
   total plane-waves  NPLWV =  86400
   max r-space proj   IRMAX =      1   max aug-charges    IRDMAX=  26943
   dimension x,y,z NGX =    30 NGY =   30 NGZ =   96
   dimension x,y,z NGXF=    60 NGYF=   60 NGZF=  192
   support grid    NGXF=    60 NGYF=   60 NGZF=  192
   ions per type =               4   2   4
   NGX,Y,Z   is equivalent  to a cutoff of  12.95, 12.95, 12.50 a.u.
   NGXF,Y,Z  is equivalent  to a cutoff of  25.90, 25.90, 24.99 a.u.

 SYSTEM =  unknown system                          
 POSCAR =  generated by phonopy                    

 Startparameter for this run:
   NWRITE =      2    write-flag & timer
   PREC   = accura    normal or accurate (medium, high low for compatibility)
   ISTART =      0    job   : 0-new  1-cont  2-samecut
   ICHARG =      2    charge: 1-file 2-atom 10-const
   ISPIN  =      2    spin polarized calculation?
   LNONCOLLINEAR =      F non collinear calculations
   LSORBIT =      F    spin-orbit coupling
   INIWAV =      1    electr: 0-lowe 1-rand  2-diag
   LASPH  =      T    aspherical Exc in radial PAW
   METAGGA=      F    non-selfconsistent MetaGGA calc.

 Electronic Relaxation 1
   ENCUT  =  520.0 eV  38.22 Ry    6.18 a.u.   7.16  7.16 23.75*2*pi/ulx,y,z
   ENINI  =  520.0     initial cutoff
   ENAUG  =  627.1 eV  augmentation charge cutoff
   NELM   =    200;   NELMIN=  6; NELMDL= -5     # of ELM steps 
   EDIFF  = 0.1E-05   stopping-criterion for ELM
   LREAL  =      F    real-space projection
   NLSPLINE    = F    spline interpolate recip. space projectors
   LCOMPAT=      F    compatible to vasp.4.4
   GGA_COMPAT  = T    GGA compatible to vasp.4.4-vasp.4.6
   LMAXPAW     = -100 max onsite density
   LMAXMIX     =    2 max onsite mixed and CHGCAR
   VOSKOWN=      0    Vosko Wilk Nusair interpolation
   ROPT   =    0.00000   0.00000   0.00000
 Ionic relaxation
   EDIFFG = -.3E-01   stopping-criterion for IOM
   NSW    =      0    number of steps for IOM
   NBLOCK =      1;   KBLOCK =      1    inner block; outer block 
   IBRION =     -1    ionic relax: 0-MD 1-quasi-New 2-CG
   NFREE  =      0    steps in history (QN), initial steepest desc. (CG)
   ISIF   =      2    stress and relaxation
   IWAVPR =     10    prediction:  0-non 1-charg 2-wave 3-comb
   ISYM   =      0    0-nonsym 1-usesym 2-fastsym
   LCORR  =      T    Harris-Foulkes like correction to forces

   POTIM  = 0.5000    time-step for ionic-motion
   TEIN   =    0.0    initial temperature
   TEBEG  =    0.0;   TEEND  =   0.0 temperature during run
   SMASS  =  -3.00    Nose mass-parameter (am)
   estimated Nose-frequenzy (Omega)   =  0.10E-29 period in steps = 0.13E+47 mass=  -0.339E-27a.u.
   SCALEE = 1.0000    scale energy and forces
   NPACO  =    256;   APACO  = 16.0  distance and # of slots for P.C.
   PSTRESS=    0.0 pullay stress

  Mass of Ions in am
   POMASS =  87.62 65.39 14.00
  Ionic Valenz
   ZVAL   =  10.00 12.00  5.00
  Atomic Wigner-Seitz radii
   RWIGS  =  -1.00 -1.00 -1.00
  virtual crystal weights 
   VCA    =   1.00  1.00  1.00
   NELECT =      84.0000    total number of electrons
   NUPDOWN=      -1.0000    fix difference up-down

 DOS related values:
   EMIN   =  10.00;   EMAX   =-10.00  energy-range for DOS
   EFERMI =   0.00
   ISMEAR =     0;   SIGMA  =   0.05  broadening in eV -4-tet -1-fermi 0-gaus

 Electronic relaxation 2 (details)
   IALGO  =     38    algorithm
   LDIAG  =      T    sub-space diagonalisation (order eigenvalues)
   LSUBROT=      F    optimize rotation matrix (better conditioning)
   TURBO    =      0    0=normal 1=particle mesh
   IRESTART =      0    0=no restart 2=restart with 2 vectors
   NREBOOT  =      0    no. of reboots
   NMIN     =      0    reboot dimension
   EREF     =   0.00    reference energy to select bands
   IMIX   =      4    mixing-type and parameters
     AMIX     =   0.40;   BMIX     =  1.00
     AMIX_MAG =   1.60;   BMIX_MAG =  1.00
     AMIN     =   0.10
     WC   =   100.;   INIMIX=   1;  MIXPRE=   1;  MAXMIX= -45

 Intra band minimization:
   WEIMIN = 0.0000     energy-eigenvalue tresh-hold
   EBREAK =  0.39E-08  absolut break condition
   DEPER  =   0.30     relativ break condition  

   TIME   =   0.40     timestep for ELM

  volume/ion in A,a.u.               =      18.94       127.82
  Fermi-wavevector in a.u.,A,eV,Ry     =   1.248435  2.359200 21.205901  1.558590
  Thomas-Fermi vector in A             =   2.382522
 
 Write flags
   LWAVE        =      F    write WAVECAR
   LDOWNSAMPLE  =      F    k-point downsampling of WAVECAR
   LCHARG       =      F    write CHGCAR
   LVTOT        =      F    write LOCPOT, total local potential
   LVHAR        =      F    write LOCPOT, Hartree potential only
   LELF         =      F    write electronic localiz. function (ELF)
   LORBIT       =     11    0 simple, 1 ext, 2 COOP (PROOUT), +10 PAW based schemes


 Dipole corrections
   LMONO  =      F    monopole corrections only (constant potential shift)
   LDIPOL =      F    correct potential (dipole corrections)
   IDIPOL =      0    1-x, 2-y, 3-z, 4-all directions 
   EPSILON=  1.0000000 bulk dielectric constant

 Exchange correlation treatment:
   GGA     =    --    GGA type
   LEXCH   =     8    internal setting for exchange type
   VOSKOWN=      0    Vosko Wilk Nusair interpolation
   LHFCALC =     F    Hartree Fock is set to
   LHFONE  =     F    Hartree Fock one center treatment
   AEXX    =    0.0000 exact exchange contribution

 Linear response parameters
   LEPSILON=     F    determine dielectric tensor
   LRPA    =     F    only Hartree local field effects (RPA)
   LNABLA  =     F    use nabla operator in PAW spheres
   LVEL    =     F    velocity operator in full k-point grid
   LINTERFAST=   F  fast interpolation
   KINTER  =     0    interpolate to denser k-point grid
   CSHIFT  =0.1000    complex shift for real part using Kramers Kronig
   OMEGAMAX=  -1.0    maximum frequency
   DEG_THRESHOLD= 0.2000000E-02 threshold for treating states as degnerate
   RTIME   =   -0.100 relaxation time in fs
  (WPLASMAI=    0.000 imaginary part of plasma frequency in eV, 0.658/RTIME)
   DFIELD  = 0.0000000 0.0000000 0.0000000 field for delta impulse in time
 
 Orbital magnetization related:
   ORBITALMAG=     F  switch on orbital magnetization
   LCHIMAG   =     F  perturbation theory with respect to B field
   DQ        =  0.001000  dq finite difference perturbation B field
   LLRAUG    =     F  two centre corrections for induced B field



--------------------------------------------------------------------------------------------------------


 Static calculation
 charge density and potential will be updated during run
 spin polarized calculation
 Variant of blocked Davidson
 Davidson routine will perform the subspace rotation
 perform sub-space diagonalisation
    after iterative eigenvector-optimisation
 modified Broyden-mixing scheme, WC =      100.0
 initial mixing is a Kerker type mixing with AMIX =  0.4000 and BMIX =      1.0000
 Hartree-type preconditioning will be used
 using additional bands           22
 reciprocal scheme for non local part
 use partial core corrections
 calculate Harris-corrections to forces 
   (improved forces if not selfconsistent)
 use gradient corrections 
 use of overlap-Matrix (Vanderbilt PP)
 Gauss-broadening in eV      SIGMA  =   0.05


--------------------------------------------------------------------------------------------------------


  energy-cutoff  :      520.00
  volume of cell :      189.41
      direct lattice vectors                 reciprocal lattice vectors
     3.851102821  0.000000006 -0.000000101     0.259665879 -0.000000000  0.000000007
     0.000000007  3.851102715 -0.000000006    -0.000000000  0.259665886  0.000000000
    -0.000000333 -0.000000021 12.771321364     0.000000002  0.000000000  0.078300434

  length of vectors
     3.851102821  3.851102715 12.771321364     0.259665879  0.259665886  0.078300434


 
 k-points in units of 2pi/SCALE and weight: Kpoints                                 
   0.00000000  0.00000000  0.00000000       0.005
   0.03245823 -0.00000000  0.00000000       0.010
  -0.00000000  0.03245824  0.00000000       0.010
   0.06491647 -0.00000000  0.00000000       0.010
  -0.00000000  0.06491647  0.00000000       0.010
   0.09737470 -0.00000000  0.00000000       0.010
  -0.00000000  0.09737471  0.00000000       0.010
   0.12983294 -0.00000000  0.00000000       0.005
  -0.00000000  0.12983294  0.00000000       0.005
   0.03245823  0.03245824  0.00000000       0.010
  -0.03245823  0.03245824 -0.00000000       0.010
   0.06491647  0.03245824  0.00000000       0.010
  -0.03245824  0.06491647 -0.00000000       0.010
  -0.06491647  0.03245824 -0.00000000       0.010
   0.03245823  0.06491647  0.00000000       0.010
   0.09737470  0.03245824  0.00000000       0.010
  -0.03245824  0.09737471 -0.00000000       0.010
  -0.09737470  0.03245824 -0.00000000       0.010
   0.03245823  0.09737471  0.00000000       0.010
   0.12983294  0.03245824  0.00000000       0.010
  -0.03245824  0.12983294 -0.00000000       0.010
   0.06491647  0.06491647  0.00000000       0.010
  -0.06491647  0.06491647 -0.00000000       0.010
   0.09737470  0.06491647  0.00000000       0.010
  -0.06491647  0.09737471 -0.00000000       0.010
  -0.09737470  0.06491647 -0.00000000       0.010
   0.06491647  0.09737471  0.00000000       0.010
   0.12983294  0.06491647  0.00000000       0.010
  -0.06491647  0.12983294 -0.00000000       0.010
   0.09737470  0.09737471  0.00000000       0.010
  -0.09737470  0.09737471 -0.00000000       0.010
   0.12983294  0.09737471  0.00000000       0.010
  -0.09737470  0.12983294 -0.00000000       0.010
   0.12983294  0.12983294  0.00000000       0.005
   0.00000000  0.00000000  0.02610014       0.010
   0.03245824 -0.00000000  0.02610015       0.010
   0.00000000  0.03245824  0.02610014       0.010
  -0.03245823  0.00000000  0.02610014       0.010
   0.00000000 -0.03245824  0.02610014       0.010
   0.06491647 -0.00000000  0.02610015       0.010
   0.00000000  0.06491647  0.02610014       0.010
  -0.06491647  0.00000000  0.02610014       0.010
   0.00000000 -0.06491647  0.02610014       0.010
   0.09737471 -0.00000000  0.02610015       0.010
   0.00000000  0.09737471  0.02610014       0.010
  -0.09737470  0.00000000  0.02610014       0.010
   0.00000000 -0.09737471  0.02610014       0.010
   0.12983294 -0.00000000  0.02610015       0.010
   0.00000000  0.12983294  0.02610014       0.010
   0.03245824  0.03245824  0.02610015       0.010
  -0.03245823  0.03245824  0.02610014       0.010
  -0.03245823 -0.03245824  0.02610014       0.010
   0.03245824 -0.03245824  0.02610015       0.010
   0.06491647  0.03245824  0.02610015       0.010
  -0.03245823  0.06491647  0.02610014       0.010
  -0.06491647 -0.03245824  0.02610014       0.010
   0.03245824 -0.06491647  0.02610015       0.010
  -0.06491647  0.03245824 -0.02610015       0.010
   0.03245823  0.06491647 -0.02610014       0.010
   0.06491647 -0.03245824 -0.02610014       0.010
  -0.03245824 -0.06491647 -0.02610015       0.010
   0.09737471  0.03245824  0.02610015       0.010
  -0.03245823  0.09737471  0.02610014       0.010
  -0.09737470 -0.03245824  0.02610014       0.010
   0.03245824 -0.09737471  0.02610015       0.010
  -0.09737471  0.03245824 -0.02610015       0.010
   0.03245823  0.09737471 -0.02610014       0.010
   0.09737470 -0.03245824 -0.02610014       0.010
  -0.03245824 -0.09737471 -0.02610015       0.010
   0.12983294  0.03245824  0.02610015       0.010
  -0.03245823  0.12983294  0.02610014       0.010
   0.12983294 -0.03245824  0.02610015       0.010
   0.03245824  0.12983294  0.02610015       0.010
   0.06491647  0.06491647  0.02610015       0.010
  -0.06491647  0.06491647  0.02610014       0.010
  -0.06491647 -0.06491647  0.02610014       0.010
   0.06491647 -0.06491647  0.02610015       0.010
   0.09737471  0.06491647  0.02610015       0.010
  -0.06491647  0.09737471  0.02610014       0.010
  -0.09737470 -0.06491647  0.02610014       0.010
   0.06491647 -0.09737471  0.02610015       0.010
  -0.09737471  0.06491647 -0.02610015       0.010
   0.06491647  0.09737471 -0.02610014       0.010
   0.09737470 -0.06491647 -0.02610014       0.010
  -0.06491647 -0.09737471 -0.02610015       0.010
   0.12983294  0.06491647  0.02610015       0.010
  -0.06491647  0.12983294  0.02610014       0.010
   0.12983294 -0.06491647  0.02610015       0.010
   0.06491647  0.12983294  0.02610015       0.010
   0.09737471  0.09737471  0.02610015       0.010
  -0.09737470  0.09737471  0.02610014       0.010
  -0.09737470 -0.09737471  0.02610014       0.010
   0.09737471 -0.09737471  0.02610015       0.010
   0.12983294  0.09737471  0.02610015       0.010
  -0.09737470  0.12983294  0.02610014       0.010
   0.12983294 -0.09737471  0.02610015       0.010
   0.09737471  0.12983294  0.02610015       0.010
   0.12983294  0.12983294  0.02610015       0.010
 
 k-points in reciprocal lattice and weights: Kpoints                                 
   0.00000000  0.00000000  0.00000000       0.005
   0.12500000  0.00000000  0.00000000       0.010
   0.00000000  0.12500000  0.00000000       0.010
   0.25000000  0.00000000  0.00000000       0.010
   0.00000000  0.25000000  0.00000000       0.010
   0.37500000 -0.00000000  0.00000000       0.010
   0.00000000  0.37500000 -0.00000000       0.010
   0.50000000  0.00000000  0.00000000       0.005
   0.00000000  0.50000000 -0.00000000       0.005
   0.12500000  0.12500000  0.00000000       0.010
  -0.12500000  0.12500000  0.00000000       0.010
   0.25000000  0.12500000  0.00000000       0.010
  -0.12500000  0.25000000  0.00000000       0.010
  -0.25000000  0.12500000  0.00000000       0.010
   0.12500000  0.25000000  0.00000000       0.010
   0.37500000  0.12500000  0.00000000       0.010
  -0.12500000  0.37500000 -0.00000000       0.010
  -0.37500000  0.12500000  0.00000000       0.010
   0.12500000  0.37500000 -0.00000000       0.010
   0.50000000  0.12500000  0.00000000       0.010
  -0.12500000  0.50000000 -0.00000000       0.010
   0.25000000  0.25000000  0.00000000       0.010
  -0.25000000  0.25000000  0.00000000       0.010
   0.37500000  0.25000000  0.00000000       0.010
  -0.25000000  0.37500000 -0.00000000       0.010
  -0.37500000  0.25000000  0.00000000       0.010
   0.25000000  0.37500000 -0.00000000       0.010
   0.50000000  0.25000000  0.00000000       0.010
  -0.25000000  0.50000000 -0.00000000       0.010
   0.37500000  0.37500000 -0.00000000       0.010
  -0.37500000  0.37500000 -0.00000000       0.010
   0.50000000  0.37500000 -0.00000000       0.010
  -0.37500000  0.50000000 -0.00000000       0.010
   0.50000000  0.50000000 -0.00000000       0.005
   0.00000000  0.00000000  0.33333333       0.010
   0.12500000 -0.00000000  0.33333333       0.010
  -0.00000000  0.12500000  0.33333333       0.010
  -0.12500000 -0.00000000  0.33333333       0.010
  -0.00000000 -0.12500000  0.33333333       0.010
   0.25000000  0.00000000  0.33333333       0.010
  -0.00000000  0.25000000  0.33333333       0.010
  -0.25000000  0.00000000  0.33333333       0.010
   0.00000000 -0.25000000  0.33333333       0.010
   0.37500000 -0.00000000  0.33333333       0.010
   0.00000000  0.37500000  0.33333333       0.010
  -0.37500000  0.00000000  0.33333333       0.010
   0.00000000 -0.37500000  0.33333333       0.010
   0.50000000  0.00000000  0.33333333       0.010
  -0.00000000  0.50000000  0.33333333       0.010
   0.12500000  0.12500000  0.33333333       0.010
  -0.12500000  0.12500000  0.33333333       0.010
  -0.12500000 -0.12500000  0.33333333       0.010
   0.12500000 -0.12500000  0.33333333       0.010
   0.25000000  0.12500000  0.33333333       0.010
  -0.12500000  0.25000000  0.33333333       0.010
  -0.25000000 -0.12500000  0.33333333       0.010
   0.12500000 -0.25000000  0.33333333       0.010
  -0.25000000  0.12500000 -0.33333333       0.010
   0.12500000  0.25000000 -0.33333333       0.010
   0.25000000 -0.12500000 -0.33333333       0.010
  -0.12500000 -0.25000000 -0.33333333       0.010
   0.37500000  0.12500000  0.33333333       0.010
  -0.12500000  0.37500000  0.33333333       0.010
  -0.37500000 -0.12500000  0.33333333       0.010
   0.12500000 -0.37500000  0.33333333       0.010
  -0.37500000  0.12500000 -0.33333333       0.010
   0.12500000  0.37500000 -0.33333333       0.010
   0.37500000 -0.12500000 -0.33333333       0.010
  -0.12500000 -0.37500000 -0.33333333       0.010
   0.50000000  0.12500000  0.33333333       0.010
  -0.12500000  0.50000000  0.33333333       0.010
   0.50000000 -0.12500000  0.33333333       0.010
   0.12500000  0.50000000  0.33333333       0.010
   0.25000000  0.25000000  0.33333333       0.010
  -0.25000000  0.25000000  0.33333333       0.010
  -0.25000000 -0.25000000  0.33333333       0.010
   0.25000000 -0.25000000  0.33333333       0.010
   0.37500000  0.25000000  0.33333333       0.010
  -0.25000000  0.37500000  0.33333333       0.010
  -0.37500000 -0.25000000  0.33333333       0.010
   0.25000000 -0.37500000  0.33333333       0.010
  -0.37500000  0.25000000 -0.33333333       0.010
   0.25000000  0.37500000 -0.33333333       0.010
   0.37500000 -0.25000000 -0.33333333       0.010
  -0.25000000 -0.37500000 -0.33333333       0.010
   0.50000000  0.25000000  0.33333333       0.010
  -0.25000000  0.50000000  0.33333333       0.010
   0.50000000 -0.25000000  0.33333333       0.010
   0.25000000  0.50000000  0.33333333       0.010
   0.37500000  0.37500000  0.33333333       0.010
  -0.37500000  0.37500000  0.33333333       0.010
  -0.37500000 -0.37500000  0.33333333       0.010
   0.37500000 -0.37500000  0.33333333       0.010
   0.50000000  0.37500000  0.33333333       0.010
  -0.37500000  0.50000000  0.33333333       0.010
   0.50000000 -0.37500000  0.33333333       0.010
   0.37500000  0.50000000  0.33333333       0.010
   0.50000000  0.50000000  0.33333333       0.010
 
 position of ions in fractional coordinates (direct lattice) 
   0.00000002  0.99999997  0.34186211
   0.00000007  0.00000000  0.65813789
   0.50000005  0.50000001  0.84186210
   0.50000007  0.49999995  0.15813790
   0.99999999  0.00000001  0.00000025
   0.49999998  0.50000002  0.49999974
   0.99999997  0.00000001  0.14266696
   0.00074961  0.00000001  0.85808249
   0.49999997  0.50000000  0.64266713
   0.49999994  0.50000002  0.35733309
 
 position of ions in cartesian coordinates  (Angst):
  -0.00000005  3.85110259  4.36603091
   0.00000005 -0.00000001  8.40529051
   1.92555132  1.92555137 10.75169131
   1.92555164  1.92555117  2.01962986
   3.85110278  0.00000006  0.00000315
   1.92555118  1.92555141  6.38565737
   3.85110265  0.00000002  1.82204547
   0.00288655  0.00000004 10.95884720
   1.92555107  1.92555136  8.20770842
   1.92555105  1.92555142  4.56361564
 


--------------------------------------------------------------------------------------------------------


 k-point   1 :   0.0000 0.0000 0.0000  plane waves:    5047
 k-point   2 :   0.1250 0.0000 0.0000  plane waves:    5075
 k-point   3 :   0.0000 0.1250 0.0000  plane waves:    5075
 k-point   4 :   0.2500 0.0000 0.0000  plane waves:    5094
 k-point   5 :   0.0000 0.2500 0.0000  plane waves:    5094
 k-point   6 :   0.3750-0.0000 0.0000  plane waves:    5118
 k-point   7 :   0.0000 0.3750-0.0000  plane waves:    5118
 k-point   8 :   0.5000 0.0000 0.0000  plane waves:    5078
 k-point   9 :   0.0000 0.5000-0.0000  plane waves:    5078
 k-point  10 :   0.1250 0.1250 0.0000  plane waves:    5074
 k-point  11 :  -0.1250 0.1250 0.0000  plane waves:    5074
 k-point  12 :   0.2500 0.1250 0.0000  plane waves:    5086
 k-point  13 :  -0.1250 0.2500 0.0000  plane waves:    5086
 k-point  14 :  -0.2500 0.1250 0.0000  plane waves:    5086
 k-point  15 :   0.1250 0.2500 0.0000  plane waves:    5086
 k-point  16 :   0.3750 0.1250 0.0000  plane waves:    5116
 k-point  17 :  -0.1250 0.3750-0.0000  plane waves:    5116
 k-point  18 :  -0.3750 0.1250 0.0000  plane waves:    5116
 k-point  19 :   0.1250 0.3750-0.0000  plane waves:    5116
 k-point  20 :   0.5000 0.1250 0.0000  plane waves:    5118
 k-point  21 :  -0.1250 0.5000-0.0000  plane waves:    5118
 k-point  22 :   0.2500 0.2500 0.0000  plane waves:    5110
 k-point  23 :  -0.2500 0.2500 0.0000  plane waves:    5110
 k-point  24 :   0.3750 0.2500 0.0000  plane waves:    5096
 k-point  25 :  -0.2500 0.3750-0.0000  plane waves:    5096
 k-point  26 :  -0.3750 0.2500 0.0000  plane waves:    5096
 k-point  27 :   0.2500 0.3750-0.0000  plane waves:    5096
 k-point  28 :   0.5000 0.2500 0.0000  plane waves:    5114
 k-point  29 :  -0.2500 0.5000-0.0000  plane waves:    5114
 k-point  30 :   0.3750 0.3750-0.0000  plane waves:    5108
 k-point  31 :  -0.3750 0.3750-0.0000  plane waves:    5108
 k-point  32 :   0.5000 0.3750-0.0000  plane waves:    5112
 k-point  33 :  -0.3750 0.5000-0.0000  plane waves:    5112
 k-point  34 :   0.5000 0.5000-0.0000  plane waves:    5108
 k-point  35 :   0.0000 0.0000 0.3333  plane waves:    5076
 k-point  36 :   0.1250-0.0000 0.3333  plane waves:    5077
 k-point  37 :  -0.0000 0.1250 0.3333  plane waves:    5077
 k-point  38 :  -0.1250-0.0000 0.3333  plane waves:    5077
 k-point  39 :  -0.0000-0.1250 0.3333  plane waves:    5077
 k-point  40 :   0.2500 0.0000 0.3333  plane waves:    5108
 k-point  41 :  -0.0000 0.2500 0.3333  plane waves:    5108
 k-point  42 :  -0.2500 0.0000 0.3333  plane waves:    5108
 k-point  43 :   0.0000-0.2500 0.3333  plane waves:    5108
 k-point  44 :   0.3750-0.0000 0.3333  plane waves:    5113
 k-point  45 :   0.0000 0.3750 0.3333  plane waves:    5113
 k-point  46 :  -0.3750 0.0000 0.3333  plane waves:    5113
 k-point  47 :   0.0000-0.3750 0.3333  plane waves:    5113
 k-point  48 :   0.5000 0.0000 0.3333  plane waves:    5106
 k-point  49 :  -0.0000 0.5000 0.3333  plane waves:    5106
 k-point  50 :   0.1250 0.1250 0.3333  plane waves:    5078
 k-point  51 :  -0.1250 0.1250 0.3333  plane waves:    5078
 k-point  52 :  -0.1250-0.1250 0.3333  plane waves:    5078
 k-point  53 :   0.1250-0.1250 0.3333  plane waves:    5078
 k-point  54 :   0.2500 0.1250 0.3333  plane waves:    5094
 k-point  55 :  -0.1250 0.2500 0.3333  plane waves:    5094
 k-point  56 :  -0.2500-0.1250 0.3333  plane waves:    5094
 k-point  57 :   0.1250-0.2500 0.3333  plane waves:    5094
 k-point  58 :  -0.2500 0.1250-0.3333  plane waves:    5094
 k-point  59 :   0.1250 0.2500-0.3333  plane waves:    5094
 k-point  60 :   0.2500-0.1250-0.3333  plane waves:    5094
 k-point  61 :  -0.1250-0.2500-0.3333  plane waves:    5094
 k-point  62 :   0.3750 0.1250 0.3333  plane waves:    5108
 k-point  63 :  -0.1250 0.3750 0.3333  plane waves:    5108
 k-point  64 :  -0.3750-0.1250 0.3333  plane waves:    5108
 k-point  65 :   0.1250-0.3750 0.3333  plane waves:    5108
 k-point  66 :  -0.3750 0.1250-0.3333  plane waves:    5108
 k-point  67 :   0.1250 0.3750-0.3333  plane waves:    5108
 k-point  68 :   0.3750-0.1250-0.3333  plane waves:    5108
 k-point  69 :  -0.1250-0.3750-0.3333  plane waves:    5108
 k-point  70 :   0.5000 0.1250 0.3333  plane waves:    5112
 k-point  71 :  -0.1250 0.5000 0.3333  plane waves:    5112
 k-point  72 :   0.5000-0.1250 0.3333  plane waves:    5112
 k-point  73 :   0.1250 0.5000 0.3333  plane waves:    5112
 k-point  74 :   0.2500 0.2500 0.3333  plane waves:    5099
 k-point  75 :  -0.2500 0.2500 0.3333  plane waves:    5099
 k-point  76 :  -0.2500-0.2500 0.3333  plane waves:    5099
 k-point  77 :   0.2500-0.2500 0.3333  plane waves:    5099
 k-point  78 :   0.3750 0.2500 0.3333  plane waves:    5095
 k-point  79 :  -0.2500 0.3750 0.3333  plane waves:    5095
 k-point  80 :  -0.3750-0.2500 0.3333  plane waves:    5095
 k-point  81 :   0.2500-0.3750 0.3333  plane waves:    5095
 k-point  82 :  -0.3750 0.2500-0.3333  plane waves:    5095
 k-point  83 :   0.2500 0.3750-0.3333  plane waves:    5095
 k-point  84 :   0.3750-0.2500-0.3333  plane waves:    5095
 k-point  85 :  -0.2500-0.3750-0.3333  plane waves:    5095
 k-point  86 :   0.5000 0.2500 0.3333  plane waves:    5090
 k-point  87 :  -0.2500 0.5000 0.3333  plane waves:    5090
 k-point  88 :   0.5000-0.2500 0.3333  plane waves:    5090
 k-point  89 :   0.2500 0.5000 0.3333  plane waves:    5090
 k-point  90 :   0.3750 0.3750 0.3333  plane waves:    5110
 k-point  91 :  -0.3750 0.3750 0.3333  plane waves:    5110
 k-point  92 :  -0.3750-0.3750 0.3333  plane waves:    5110
 k-point  93 :   0.3750-0.3750 0.3333  plane waves:    5110
 k-point  94 :   0.5000 0.3750 0.3333  plane waves:    5114
 k-point  95 :  -0.3750 0.5000 0.3333  plane waves:    5114
 k-point  96 :   0.5000-0.3750 0.3333  plane waves:    5114
 k-point  97 :   0.3750 0.5000 0.3333  plane waves:    5114
 k-point  98 :   0.5000 0.5000 0.3333  plane waves:    5136

 maximum and minimum number of plane-waves per node :      1303     1249

 maximum number of plane-waves:      5136
 maximum index in each direction: 
   IXMAX=    7   IYMAX=    7   IZMAX=   24
   IXMIN=   -7   IYMIN=   -7   IZMIN=  -24


 parallel 3D FFT for wavefunctions:
    minimum data exchange during FFTs selected (reduces bandwidth)
 parallel 3D FFT for charge:
    minimum data exchange during FFTs selected (reduces bandwidth)


 total amount of memory used by VASP MPI-rank0   107651. kBytes
=======================================================================

   base      :      30000. kBytes
   nonl-proj :      55074. kBytes
   fftplans  :       1092. kBytes
   grid      :       4533. kBytes
   one-center:         93. kBytes
   wavefun   :      16859. kBytes
 
     INWAV:  cpu time    0.0000: real time    0.0000
 Broyden mixing: mesh for mixing (old mesh)
   NGX = 15   NGY = 15   NGZ = 47
  (NGX  = 60   NGY  = 60   NGZ  =192)
  gives a total of  10575 points

 initial charge density was supplied:
 charge density of overlapping atoms calculated
 number of electron      84.0000000 magnetization       0.6000000
 keeping initial charge density in first step


--------------------------------------------------------------------------------------------------------


 Maximum index for augmentation-charges         1050 (set IRDMAX)


--------------------------------------------------------------------------------------------------------


 First call to EWALD:  gamma=   0.309
 Maximum number of real-space cells 4x 4x 2
 Maximum number of reciprocal cells 2x 2x 6

    FEWALD:  cpu time    0.0015: real time    0.0016


--------------------------------------- Iteration      1(   1)  ---------------------------------------


    POTLOK:  cpu time    0.0447: real time    0.0601
    SETDIJ:  cpu time    0.9049: real time    0.9053
     EDDAV:  cpu time    9.6007: real time    9.6043
       DOS:  cpu time    0.0034: real time    0.0036
    --------------------------------------------
      LOOP:  cpu time   10.5538: real time   10.5733

 eigenvalue-minimisations  : 25088
 total energy-change (2. order) : 0.5391072E+03  (-0.4084976E+04)
 number of electron      84.0000000 magnetization       0.6000000
 augmentation part       84.0000000 magnetization       0.6000000

 Free energy of the ion-electron system (eV)
  ---------------------------------------------------
  alpha Z        PSCENC =       487.77386565
  Ewald energy   TEWEN  =     -5604.22663562
  -Hartree energ DENC   =     -2140.13621289
  -exchange      EXHF   =         0.00000000
  -V(xc)+E(xc)   XCENC  =       389.56778060
  PAW double counting   =      6184.04713378    -6608.31218866
  entropy T*S    EENTRO =        -0.00287510
  eigenvalues    EBANDS =       -97.53468572
  atomic energy  EATOM  =      7927.93097991
  Solvation  Ediel_sol  =         0.00000000
  ---------------------------------------------------
  free energy    TOTEN  =       539.10716194 eV

  energy without entropy =      539.11003705  energy(sigma->0) =      539.10859950


--------------------------------------------------------------------------------------------------------




--------------------------------------- Iteration      1(   2)  ---------------------------------------


     EDDAV:  cpu time    9.8492: real time    9.8607
       DOS:  cpu time    0.0017: real time    0.0016
    --------------------------------------------
      LOOP:  cpu time    9.8508: real time    9.8624

 eigenvalue-minimisations  : 26096
 total energy-change (2. order) :-0.6576216E+03  (-0.6166145E+03)
 number of electron      84.0000000 magnetization       0.6000000
 augmentation part       84.0000000 magnetization       0.6000000

 Free energy of the ion-electron system (eV)
  ---------------------------------------------------
  alpha Z        PSCENC =       487.77386565
  Ewald energy   TEWEN  =     -5604.22663562
  -Hartree energ DENC   =     -2140.13621289
  -exchange      EXHF   =         0.00000000
  -V(xc)+E(xc)   XCENC  =       389.56778060
  PAW double counting   =      6184.04713378    -6608.31218866
  entropy T*S    EENTRO =        -0.00000000
  eigenvalues    EBANDS =      -755.15914378
  atomic energy  EATOM  =      7927.93097991
  Solvation  Ediel_sol  =         0.00000000
  ---------------------------------------------------
  free energy    TOTEN  =      -118.51442102 eV

  energy without entropy =     -118.51442102  energy(sigma->0) =     -118.51442102


--------------------------------------------------------------------------------------------------------




--------------------------------------- Iteration      1(   3)  ---------------------------------------


     EDDAV:  cpu time   12.9117: real time   12.9397
       DOS:  cpu time    0.0017: real time    0.0017
    --------------------------------------------
      LOOP:  cpu time   12.9134: real time   12.9414

 eigenvalue-minimisations  : 37040
 total energy-change (2. order) :-0.7735103E+02  (-0.7621416E+02)
 number of electron      84.0000000 magnetization       0.6000000
 augmentation part       84.0000000 magnetization       0.6000000

 Free energy of the ion-electron system (eV)
  ---------------------------------------------------
  alpha Z        PSCENC =       487.77386565
  Ewald energy   TEWEN  =     -5604.22663562
  -Hartree energ DENC   =     -2140.13621289
  -exchange      EXHF   =         0.00000000
  -V(xc)+E(xc)   XCENC  =       389.56778060
  PAW double counting   =      6184.04713378    -6608.31218866
  entropy T*S    EENTRO =        -0.00000000
  eigenvalues    EBANDS =      -832.51017612
  atomic energy  EATOM  =      7927.93097991
  Solvation  Ediel_sol  =         0.00000000
  ---------------------------------------------------
  free energy    TOTEN  =      -195.86545336 eV

  energy without entropy =     -195.86545336  energy(sigma->0) =     -195.86545336


--------------------------------------------------------------------------------------------------------




--------------------------------------- Iteration      1(   4)  ---------------------------------------


     EDDAV:  cpu time   13.9938: real time   14.0025
       DOS:  cpu time    0.0017: real time    0.0017
    --------------------------------------------
      LOOP:  cpu time   13.9955: real time   14.0042

 eigenvalue-minimisations  : 41120
 total energy-change (2. order) :-0.3939838E+01  (-0.3894181E+01)
 number of electron      84.0000000 magnetization       0.6000000
 augmentation part       84.0000000 magnetization       0.6000000

 Free energy of the ion-electron system (eV)
  ---------------------------------------------------
  alpha Z        PSCENC =       487.77386565
  Ewald energy   TEWEN  =     -5604.22663562
  -Hartree energ DENC   =     -2140.13621289
  -exchange      EXHF   =         0.00000000
  -V(xc)+E(xc)   XCENC  =       389.56778060
  PAW double counting   =      6184.04713378    -6608.31218866
  entropy T*S    EENTRO =        -0.00000000
  eigenvalues    EBANDS =      -836.45001364
  atomic energy  EATOM  =      7927.93097991
  Solvation  Ediel_sol  =         0.00000000
  ---------------------------------------------------
  free energy    TOTEN  =      -199.80529087 eV

  energy without entropy =     -199.80529087  energy(sigma->0) =     -199.80529087


--------------------------------------------------------------------------------------------------------




--------------------------------------- Iteration      1(   5)  ---------------------------------------


     EDDAV:  cpu time   11.7918: real time   11.8019
       DOS:  cpu time    0.0015: real time    0.0015
    CHARGE:  cpu time    1.0079: real time    1.0087
    MIXING:  cpu time    0.0023: real time    0.0033
    --------------------------------------------
      LOOP:  cpu time   12.8036: real time   12.8154

 eigenvalue-minimisations  : 33712
 total energy-change (2. order) :-0.6698267E-01  (-0.6697158E-01)
 number of electron      83.9999984 magnetization       0.4129216
 augmentation part       17.7272365 magnetization       0.4398955

 Broyden mixing:
  rms(total) = 0.35328E+01    rms(broyden)= 0.35327E+01
  rms(prec ) = 0.38968E+01
  weight for this iteration     100.00

 Free energy of the ion-electron system (eV)
  ---------------------------------------------------
  alpha Z        PSCENC =       487.77386565
  Ewald energy   TEWEN  =     -5604.22663562
  -Hartree energ DENC   =     -2140.13621289
  -exchange      EXHF   =         0.00000000
  -V(xc)+E(xc)   XCENC  =       389.56778060
  PAW double counting   =      6184.04713378    -6608.31218866
  entropy T*S    EENTRO =        -0.00000000
  eigenvalues    EBANDS =      -836.51699631
  atomic energy  EATOM  =      7927.93097991
  Solvation  Ediel_sol  =         0.00000000
  ---------------------------------------------------
  free energy    TOTEN  =      -199.87227355 eV

  energy without entropy =     -199.87227355  energy(sigma->0) =     -199.87227355


--------------------------------------------------------------------------------------------------------




--------------------------------------- Iteration      1(   6)  ---------------------------------------


    POTLOK:  cpu time    0.0456: real time    0.0812
    SETDIJ:  cpu time    0.8928: real time    0.8929
     EDDAV:  cpu time   14.1519: real time   14.1532
       DOS:  cpu time    0.0019: real time    0.0019
    CHARGE:  cpu time    1.0061: real time    1.0062
    MIXING:  cpu time    0.0011: real time    0.0011
    --------------------------------------------
      LOOP:  cpu time   16.0994: real time   16.1365

 eigenvalue-minimisations  : 42304
 total energy-change (2. order) : 0.4063526E+02  (-0.4458726E+01)
 number of electron      83.9999984 magnetization       0.2889312
 augmentation part       19.0303514 magnetization       0.2792411

 Broyden mixing:
  rms(total) = 0.29089E+01    rms(broyden)= 0.29089E+01
  rms(prec ) = 0.29257E+01
  weight for this iteration     100.00

 eigenvalues of (default mixing * dielectric matrix)
  average eigenvalue GAMMA=   0.9370
  0.9370

 Free energy of the ion-electron system (eV)
  ---------------------------------------------------
  alpha Z        PSCENC =       487.77386565
  Ewald energy   TEWEN  =     -5604.22663562
  -Hartree energ DENC   =     -2154.93611378
  -exchange      EXHF   =         0.00000000
  -V(xc)+E(xc)   XCENC  =       408.55247735
  PAW double counting   =      7785.79347450    -8202.40469077
  entropy T*S    EENTRO =        -0.00000000
  eigenvalues    EBANDS =      -807.72037420
  atomic energy  EATOM  =      7927.93097991
  Solvation  Ediel_sol  =         0.00000000
  ---------------------------------------------------
  free energy    TOTEN  =      -159.23701695 eV

  energy without entropy =     -159.23701695  energy(sigma->0) =     -159.23701695


--------------------------------------------------------------------------------------------------------




--------------------------------------- Iteration      1(   7)  ---------------------------------------


    POTLOK:  cpu time    0.0377: real time    0.0584
    SETDIJ:  cpu time    0.8962: real time    0.8963
     EDDAV:  cpu time   11.7299: real time   11.7310
       DOS:  cpu time    0.0017: real time    0.0017
    CHARGE:  cpu time    1.0070: real time    1.0071
    MIXING:  cpu time    0.0005: real time    0.0005
    --------------------------------------------
      LOOP:  cpu time   13.6729: real time   13.6950

 eigenvalue-minimisations  : 33232
 total energy-change (2. order) :-0.1582208E+01  (-0.1589853E+01)
 number of electron      83.9999984 magnetization       0.1202107
 augmentation part       18.6720080 magnetization       0.1078123

 Broyden mixing:
  rms(total) = 0.19922E+01    rms(broyden)= 0.19922E+01
  rms(prec ) = 0.20126E+01
  weight for this iteration     100.00

 eigenvalues of (default mixing * dielectric matrix)
  average eigenvalue GAMMA=   1.4798
  1.1304  1.8292

 Free energy of the ion-electron system (eV)
  ---------------------------------------------------
  alpha Z        PSCENC =       487.77386565
  Ewald energy   TEWEN  =     -5604.22663562
  -Hartree energ DENC   =     -2166.48338723
  -exchange      EXHF   =         0.00000000
  -V(xc)+E(xc)   XCENC  =       407.27172478
  PAW double counting   =      8949.55337814    -9386.05016064
  entropy T*S    EENTRO =        -0.00000000
  eigenvalues    EBANDS =      -776.58899023
  atomic energy  EATOM  =      7927.93097991
  Solvation  Ediel_sol  =         0.00000000
  ---------------------------------------------------
  free energy    TOTEN  =      -160.81922525 eV

  energy without entropy =     -160.81922525  energy(sigma->0) =     -160.81922525


--------------------------------------------------------------------------------------------------------




--------------------------------------- Iteration      1(   8)  ---------------------------------------


    POTLOK:  cpu time    0.0403: real time    0.0439
    SETDIJ:  cpu time    0.8974: real time    0.8975
     EDDAV:  cpu time   11.8678: real time   11.8689
       DOS:  cpu time    0.0017: real time    0.0017
    CHARGE:  cpu time    1.0102: real time    1.0103
    MIXING:  cpu time    0.0006: real time    0.0006
    --------------------------------------------
      LOOP:  cpu time   13.8180: real time   13.8229

 eigenvalue-minimisations  : 33520
 total energy-change (2. order) :-0.2695646E+00  (-0.4431712E+00)
 number of electron      83.9999984 magnetization       0.0659270
 augmentation part       18.9725658 magnetization       0.0611551

 Broyden mixing:
  rms(total) = 0.45281E+00    rms(broyden)= 0.45277E+00
  rms(prec ) = 0.53935E+00
  weight for this iteration     100.00

 eigenvalues of (default mixing * dielectric matrix)
  average eigenvalue GAMMA=   1.3081
  2.2069  0.8588  0.8588

 Free energy of the ion-electron system (eV)
  ---------------------------------------------------
  alpha Z        PSCENC =       487.77386565
  Ewald energy   TEWEN  =     -5604.22663562
  -Hartree energ DENC   =     -2134.85657252
  -exchange      EXHF   =         0.00000000
  -V(xc)+E(xc)   XCENC  =       404.94030722
  PAW double counting   =     10654.92509527   -11098.16600870
  entropy T*S    EENTRO =        -0.00000000
  eigenvalues    EBANDS =      -799.40982110
  atomic energy  EATOM  =      7927.93097991
  Solvation  Ediel_sol  =         0.00000000
  ---------------------------------------------------
  free energy    TOTEN  =      -161.08878989 eV

  energy without entropy =     -161.08878989  energy(sigma->0) =     -161.08878989


--------------------------------------------------------------------------------------------------------




--------------------------------------- Iteration      1(   9)  ---------------------------------------


    POTLOK:  cpu time    0.0363: real time    0.0582
    SETDIJ:  cpu time    0.8965: real time    0.8966
     EDDAV:  cpu time   11.7381: real time   11.7392
       DOS:  cpu time    0.0019: real time    0.0019
    CHARGE:  cpu time    1.0021: real time    1.0022
    MIXING:  cpu time    0.0006: real time    0.0006
    --------------------------------------------
      LOOP:  cpu time   13.6756: real time   13.6987

 eigenvalue-minimisations  : 33424
 total energy-change (2. order) : 0.3568641E+00  (-0.1316597E+00)
 number of electron      83.9999984 magnetization       0.0471424
 augmentation part       18.8102364 magnetization       0.0399316

 Broyden mixing:
  rms(total) = 0.15126E+00    rms(broyden)= 0.15124E+00
  rms(prec ) = 0.16078E+00
  weight for this iteration     100.00

 eigenvalues of (default mixing * dielectric matrix)
  average eigenvalue GAMMA=   1.1434
  2.2998  0.8662  0.8662  0.5415

 Free energy of the ion-electron system (eV)
  ---------------------------------------------------
  alpha Z        PSCENC =       487.77386565
  Ewald energy   TEWEN  =     -5604.22663562
  -Hartree energ DENC   =     -2147.94202999
  -exchange      EXHF   =         0.00000000
  -V(xc)+E(xc)   XCENC  =       406.45539998
  PAW double counting   =     10908.93710424   -11358.24325889
  entropy T*S    EENTRO =        -0.00000000
  eigenvalues    EBANDS =      -781.41735109
  atomic energy  EATOM  =      7927.93097991
  Solvation  Ediel_sol  =         0.00000000
  ---------------------------------------------------
  free energy    TOTEN  =      -160.73192580 eV

  energy without entropy =     -160.73192580  energy(sigma->0) =     -160.73192580


--------------------------------------------------------------------------------------------------------




--------------------------------------- Iteration      1(  10)  ---------------------------------------


    POTLOK:  cpu time    0.0592: real time    0.0729
    SETDIJ:  cpu time    0.8958: real time    0.8959
     EDDAV:  cpu time   11.2132: real time   11.2142
       DOS:  cpu time    0.0017: real time    0.0017
    CHARGE:  cpu time    1.0056: real time    1.0057
    MIXING:  cpu time    0.0007: real time    0.0007
    --------------------------------------------
      LOOP:  cpu time   13.1762: real time   13.1911

 eigenvalue-minimisations  : 31216
 total energy-change (2. order) : 0.4925846E-02  (-0.1257003E-01)
 number of electron      83.9999984 magnetization       0.0299592
 augmentation part       18.8099315 magnetization       0.0240365

 Broyden mixing:
  rms(total) = 0.94659E-01    rms(broyden)= 0.94653E-01
  rms(prec ) = 0.96921E-01
  weight for this iteration     100.00

 eigenvalues of (default mixing * dielectric matrix)
  average eigenvalue GAMMA=   1.1258
  2.4497  0.9826  0.8438  0.8438  0.5090

 Free energy of the ion-electron system (eV)
  ---------------------------------------------------
  alpha Z        PSCENC =       487.77386565
  Ewald energy   TEWEN  =     -5604.22663562
  -Hartree energ DENC   =     -2148.33661149
  -exchange      EXHF   =         0.00000000
  -V(xc)+E(xc)   XCENC  =       406.15677621
  PAW double counting   =     10955.79841022   -11405.56819492
  entropy T*S    EENTRO =        -0.00000000
  eigenvalues    EBANDS =      -780.25558991
  atomic energy  EATOM  =      7927.93097991
  Solvation  Ediel_sol  =         0.00000000
  ---------------------------------------------------
  free energy    TOTEN  =      -160.72699995 eV

  energy without entropy =     -160.72699995  energy(sigma->0) =     -160.72699995


--------------------------------------------------------------------------------------------------------




--------------------------------------- Iteration      1(  11)  ---------------------------------------


    POTLOK:  cpu time    0.0364: real time    0.0364
    SETDIJ:  cpu time    0.9197: real time    0.9197
     EDDAV:  cpu time   12.6276: real time   12.6288
       DOS:  cpu time    0.0017: real time    0.0017
    CHARGE:  cpu time    0.9972: real time    0.9973
    MIXING:  cpu time    0.0005: real time    0.0005
    --------------------------------------------
      LOOP:  cpu time   14.5831: real time   14.5845

 eigenvalue-minimisations  : 34448
 total energy-change (2. order) :-0.2161798E-02  (-0.8134412E-03)
 number of electron      83.9999984 magnetization       0.0120067
 augmentation part       18.8150296 magnetization       0.0083462

 Broyden mixing:
  rms(total) = 0.50396E-01    rms(broyden)= 0.50395E-01
  rms(prec ) = 0.51644E-01
  weight for this iteration     100.00

 eigenvalues of (default mixing * dielectric matrix)
  average eigenvalue GAMMA=   1.2097
  2.5974  1.5942  0.9132  0.9132  0.7680  0.4722

 Free energy of the ion-electron system (eV)
  ---------------------------------------------------
  alpha Z        PSCENC =       487.77386565
  Ewald energy   TEWEN  =     -5604.22663562
  -Hartree energ DENC   =     -2147.84150028
  -exchange      EXHF   =         0.00000000
  -V(xc)+E(xc)   XCENC  =       406.10745428
  PAW double counting   =     10982.40558010   -11432.47530068
  entropy T*S    EENTRO =        -0.00000000
  eigenvalues    EBANDS =      -780.40360510
  atomic energy  EATOM  =      7927.93097991
  Solvation  Ediel_sol  =         0.00000000
  ---------------------------------------------------
  free energy    TOTEN  =      -160.72916175 eV

  energy without entropy =     -160.72916175  energy(sigma->0) =     -160.72916175


--------------------------------------------------------------------------------------------------------




--------------------------------------- Iteration      1(  12)  ---------------------------------------


    POTLOK:  cpu time    0.0431: real time    0.0593
    SETDIJ:  cpu time    0.9027: real time    0.9028
     EDDAV:  cpu time   10.6131: real time   10.6141
       DOS:  cpu time    0.0017: real time    0.0017
    CHARGE:  cpu time    0.9868: real time    0.9869
    MIXING:  cpu time    0.0006: real time    0.0006
    --------------------------------------------
      LOOP:  cpu time   12.5480: real time   12.5654

 eigenvalue-minimisations  : 31488
 total energy-change (2. order) :-0.1494222E-02  (-0.3462665E-03)
 number of electron      83.9999984 magnetization       0.0049009
 augmentation part       18.8189204 magnetization       0.0036626

 Broyden mixing:
  rms(total) = 0.22601E-01    rms(broyden)= 0.22600E-01
  rms(prec ) = 0.23588E-01
  weight for this iteration     100.00

 eigenvalues of (default mixing * dielectric matrix)
  average eigenvalue GAMMA=   1.2444
  2.7064  2.1139  0.8886  0.8886  0.9183  0.7333  0.4613

 Free energy of the ion-electron system (eV)
  ---------------------------------------------------
  alpha Z        PSCENC =       487.77386565
  Ewald energy   TEWEN  =     -5604.22663562
  -Hartree energ DENC   =     -2147.64083641
  -exchange      EXHF   =         0.00000000
  -V(xc)+E(xc)   XCENC  =       406.14026971
  PAW double counting   =     10962.14249317   -11412.43860613
  entropy T*S    EENTRO =        -0.00000000
  eigenvalues    EBANDS =      -780.41218626
  atomic energy  EATOM  =      7927.93097991
  Solvation  Ediel_sol  =         0.00000000
  ---------------------------------------------------
  free energy    TOTEN  =      -160.73065597 eV

  energy without entropy =     -160.73065597  energy(sigma->0) =     -160.73065597


--------------------------------------------------------------------------------------------------------




--------------------------------------- Iteration      1(  13)  ---------------------------------------


    POTLOK:  cpu time    0.0379: real time    0.0500
    SETDIJ:  cpu time    0.8971: real time    0.8972
     EDDAV:  cpu time   10.3548: real time   10.3557
       DOS:  cpu time    0.0016: real time    0.0016
    CHARGE:  cpu time    0.9877: real time    0.9878
    MIXING:  cpu time    0.0006: real time    0.0006
    --------------------------------------------
      LOOP:  cpu time   12.2798: real time   12.2930

 eigenvalue-minimisations  : 30448
 total energy-change (2. order) :-0.3040596E-03  (-0.1129201E-03)
 number of electron      83.9999984 magnetization       0.0028282
 augmentation part       18.8160074 magnetization       0.0023349

 Broyden mixing:
  rms(total) = 0.74007E-02    rms(broyden)= 0.74004E-02
  rms(prec ) = 0.75262E-02
  weight for this iteration     100.00

 eigenvalues of (default mixing * dielectric matrix)
  average eigenvalue GAMMA=   1.2463
  2.6533  2.4409  1.2313  0.8790  0.8790  0.7904  0.6356  0.4609

 Free energy of the ion-electron system (eV)
  ---------------------------------------------------
  alpha Z        PSCENC =       487.77386565
  Ewald energy   TEWEN  =     -5604.22663562
  -Hartree energ DENC   =     -2148.08530225
  -exchange      EXHF   =         0.00000000
  -V(xc)+E(xc)   XCENC  =       406.19871969
  PAW double counting   =     10929.83213434   -11380.12049222
  entropy T*S    EENTRO =        -0.00000000
  eigenvalues    EBANDS =      -780.03422954
  atomic energy  EATOM  =      7927.93097991
  Solvation  Ediel_sol  =         0.00000000
  ---------------------------------------------------
  free energy    TOTEN  =      -160.73096003 eV

  energy without entropy =     -160.73096003  energy(sigma->0) =     -160.73096003


--------------------------------------------------------------------------------------------------------




--------------------------------------- Iteration      1(  14)  ---------------------------------------


    POTLOK:  cpu time    0.0357: real time    0.0357
    SETDIJ:  cpu time    0.8980: real time    0.8981
     EDDAV:  cpu time   10.4365: real time   10.4789
       DOS:  cpu time    0.0018: real time    0.0018
    CHARGE:  cpu time    0.9880: real time    0.9895
    MIXING:  cpu time    0.0006: real time    0.0006
    --------------------------------------------
      LOOP:  cpu time   12.3606: real time   12.4047

 eigenvalue-minimisations  : 30928
[...]
     53       8.6296      0.00000
     54       8.6550      0.00000
     55       9.9680      0.00000
     56       9.9790      0.00000
     57      10.5372      0.00000
     58      10.5413      0.00000
     59      10.7351      0.00000
     60      10.7362      0.00000
     61      10.9351      0.00000
     62      10.9423      0.00000
     63      11.4380      0.00000
     64      11.4454      0.00000

 k-point    98 :       0.5000    0.5000    0.3333
  band No.  band energies     occupation 
      1     -33.0143      1.00000
      2     -32.9979      1.00000
      3     -32.9856      1.00000
      4     -32.9744      1.00000
      5     -14.7187      1.00000
      6     -14.7187      1.00000
      7     -14.7080      1.00000
      8     -14.6972      1.00000
      9     -14.6929      1.00000
     10     -14.6929      1.00000
     11     -14.6127      1.00000
     12     -14.6032      1.00000
     13     -14.3688      1.00000
     14     -14.3688      1.00000
     15     -14.3427      1.00000
     16     -14.3427      1.00000
     17     -11.3727      1.00000
     18     -11.3690      1.00000
     19     -10.6951      1.00000
     20     -10.6853      1.00000
     21      -4.7722      1.00000
     22      -4.7722      1.00000
     23      -4.7579      1.00000
     24      -4.7579      1.00000
     25      -4.6761      1.00000
     26      -4.6544      1.00000
     27      -4.5400      1.00000
     28      -4.5391      1.00000
     29      -4.5239      1.00000
     30      -4.5177      1.00000
     31      -0.5235      1.00000
     32      -0.5039      1.00000
     33       0.4798      1.00000
     34       0.4798      1.00000
     35       0.5600      1.00000
     36       0.5601      1.00000
     37       0.5871      1.00000
     38       0.5993      1.00000
     39       1.7339      1.00000
     40       1.7339      1.00000
     41       1.8145      1.00000
     42       1.8145      1.00000
     43       3.8388      0.00000
     44       3.8388      0.00000
     45       4.5821      0.00000
     46       4.5821      0.00000
     47       6.1711      0.00000
     48       6.1925      0.00000
     49       6.8358      0.00000
     50       6.8358      0.00000
     51       8.0741      0.00000
     52       8.0741      0.00000
     53       8.1652      0.00000
     54       8.2077      0.00000
     55       9.8963      0.00000
     56       9.9080      0.00000
     57      10.5234      0.00000
     58      10.5393      0.00000
     59      10.9372      0.00000
     60      10.9372      0.00000
     61      11.4776      0.00000
     62      11.4909      0.00000
     63      11.5415      0.00000
     64      11.5593      0.00000


--------------------------------------------------------------------------------------------------------


 soft charge-density along one line, spin component           1
         0         1         2         3         4         5         6         7         8         9
 total charge-density along one line
 
 soft charge-density along one line, spin component           2
         0         1         2         3         4         5         6         7         8         9
 total charge-density along one line
 
 pseudopotential strength for first ion, spin component:           1
-10.653  -3.990   0.000   0.003   0.000   0.000   0.003   0.000
 -3.990  -1.075  -0.000  -0.013  -0.000  -0.000  -0.012  -0.000
  0.000  -0.000 -15.459  -0.000  -0.000 -15.167  -0.000  -0.000
  0.003  -0.013  -0.000 -15.484   0.000  -0.000 -15.192   0.000
  0.000  -0.000  -0.000   0.000 -15.459  -0.000   0.000 -15.167
  0.000  -0.000 -15.167  -0.000  -0.000 -14.879  -0.000  -0.000
  0.003  -0.012  -0.000 -15.192   0.000  -0.000 -14.903   0.000
  0.000  -0.000  -0.000   0.000 -15.167  -0.000   0.000 -14.879
 -0.000  -0.000   0.000  -0.000   0.000  -0.000  -0.000   0.000
 -0.000   0.000   0.002   0.000  -0.000   0.002   0.000  -0.000
 -0.007  -0.004   0.000  -0.008   0.000   0.000  -0.007   0.000
  0.000   0.000  -0.000  -0.000   0.002  -0.000  -0.000   0.002
 -0.000   0.000   0.000  -0.000  -0.000   0.000  -0.000  -0.000
 -0.000  -0.000   0.000  -0.000   0.000   0.000  -0.000   0.000
 -0.000   0.000   0.003   0.000  -0.000   0.003   0.000  -0.000
 -0.011  -0.007   0.000  -0.012  -0.000   0.000  -0.011   0.000
  0.000   0.000  -0.000  -0.000   0.003  -0.000  -0.000   0.003
 -0.000   0.000  -0.000  -0.000  -0.000   0.000  -0.000  -0.000
 pseudopotential strength for first ion, spin component:           2
-10.653  -3.990  -0.000   0.003   0.000  -0.000   0.003   0.000
 -3.990  -1.075   0.000  -0.013  -0.000   0.000  -0.012  -0.000
 -0.000   0.000 -15.459  -0.000   0.000 -15.167  -0.000   0.000
  0.003  -0.013  -0.000 -15.484   0.000  -0.000 -15.192   0.000
  0.000  -0.000   0.000   0.000 -15.459   0.000   0.000 -15.167
 -0.000   0.000 -15.167  -0.000   0.000 -14.879  -0.000   0.000
  0.003  -0.012  -0.000 -15.192   0.000  -0.000 -14.903   0.000
  0.000  -0.000   0.000   0.000 -15.167   0.000   0.000 -14.879
  0.000   0.000   0.000   0.000  -0.000  -0.000   0.000  -0.000
 -0.000  -0.000   0.002  -0.000   0.000   0.002  -0.000   0.000
 -0.007  -0.004   0.000  -0.008   0.000   0.000  -0.007   0.000
  0.000   0.000   0.000  -0.000   0.002   0.000  -0.000   0.002
 -0.000  -0.000  -0.000   0.000  -0.000  -0.000   0.000  -0.000
  0.000   0.000   0.000   0.000  -0.000  -0.000   0.000  -0.000
 -0.000  -0.000   0.003  -0.000   0.000   0.003  -0.000   0.000
 -0.011  -0.007   0.000  -0.012  -0.000   0.000  -0.011   0.000
  0.000   0.000   0.000  -0.000   0.003   0.000  -0.000   0.003
 -0.000  -0.000  -0.000   0.000  -0.000  -0.000   0.000  -0.000
 total augmentation occupancy for first ion, spin component:           1
  2.005   0.015   0.000  -0.172  -0.000  -0.000   0.176   0.000   0.000  -0.000   0.001   0.000   0.000  -0.000   0.000   0.006
  0.015   0.562   0.000   0.377   0.000  -0.000  -0.333  -0.000   0.000  -0.000  -0.060   0.000   0.000  -0.000   0.000   0.024
  0.000   0.000  11.008  -0.000  -0.000  -9.601   0.000   0.000  -0.000  -0.597  -0.000   0.000   0.000   0.000   0.332   0.000
 -0.172   0.377  -0.000   7.127   0.000   0.000  -6.206  -0.000   0.000   0.000   4.128   0.001   0.000  -0.000  -0.000  -2.225
 -0.000   0.000  -0.000   0.000  11.008   0.000  -0.000  -9.601   0.000   0.000   0.000  -0.597  -0.000  -0.000  -0.000  -0.000
 -0.000  -0.000  -9.601   0.000   0.000  10.244  -0.000  -0.000   0.000   0.536   0.000  -0.000  -0.000  -0.000  -0.294  -0.000
  0.176  -0.333   0.000  -6.206  -0.000  -0.000   7.331   0.000  -0.000  -0.000  -3.867  -0.001  -0.000   0.000   0.000   2.100
  0.000  -0.000   0.000  -0.000  -9.601  -0.000   0.000  10.244  -0.000  -0.000  -0.000   0.536   0.000   0.000   0.000   0.000
  0.000   0.000  -0.000   0.000   0.000   0.000  -0.000  -0.000   6.631  -0.000   0.000  -0.000  -0.000  -3.555   0.000  -0.000
 -0.000  -0.000  -0.597   0.000   0.000   0.536  -0.000  -0.000  -0.000   2.007  -0.000  -0.000   0.000   0.000  -1.069   0.000
  0.001  -0.060  -0.000   4.128   0.000   0.000  -3.867  -0.000   0.000  -0.000   5.504   0.001  -0.000  -0.000   0.000  -2.987
  0.000   0.000   0.000   0.001  -0.597  -0.000  -0.001   0.536  -0.000  -0.000   0.001   2.007  -0.000   0.000   0.000  -0.000
  0.000   0.000   0.000   0.000  -0.000  -0.000  -0.000   0.000  -0.000   0.000  -0.000  -0.000   1.867   0.000  -0.000   0.000
 -0.000  -0.000   0.000  -0.000  -0.000  -0.000   0.000   0.000  -3.555   0.000  -0.000   0.000   0.000   1.911  -0.000   0.000
  0.000   0.000   0.332  -0.000  -0.000  -0.294   0.000   0.000   0.000  -1.069   0.000   0.000  -0.000  -0.000   0.570  -0.000
  0.006   0.024   0.000  -2.225  -0.000  -0.000   2.100   0.000  -0.000   0.000  -2.987  -0.000   0.000   0.000  -0.000   1.624
 -0.000  -0.000  -0.000  -0.000   0.332   0.000   0.000  -0.294   0.000   0.000  -0.000  -1.069   0.000  -0.000  -0.000   0.000
 -0.000  -0.000  -0.000  -0.000   0.000   0.000   0.000  -0.000   0.000  -0.000   0.000   0.000  -0.982  -0.000   0.000  -0.000
 total augmentation occupancy for first ion, spin component:           2
  0.000   0.000   0.000  -0.000   0.000  -0.000   0.000  -0.000  -0.000   0.000   0.000   0.000   0.000   0.000  -0.000  -0.000
  0.000   0.000  -0.000  -0.000  -0.000   0.000   0.000   0.000  -0.000   0.000   0.000  -0.000  -0.000   0.000  -0.000  -0.000
  0.000  -0.000  -0.000  -0.000   0.000   0.000   0.000  -0.000   0.000  -0.000  -0.000  -0.000  -0.000  -0.000   0.000   0.000
 -0.000  -0.000  -0.000   0.000  -0.000   0.000  -0.000   0.000  -0.000  -0.000  -0.000  -0.000  -0.000   0.000   0.000   0.000
  0.000  -0.000   0.000  -0.000  -0.000  -0.000   0.000   0.000  -0.000  -0.000  -0.000  -0.000  -0.000   0.000   0.000  -0.000
 -0.000   0.000   0.000   0.000  -0.000  -0.000  -0.000   0.000  -0.000   0.000   0.000   0.000   0.000   0.000  -0.000  -0.000
  0.000   0.000   0.000  -0.000   0.000  -0.000   0.000  -0.000   0.000  -0.000   0.000   0.000   0.000  -0.000   0.000  -0.000
 -0.000   0.000  -0.000   0.000   0.000   0.000  -0.000  -0.000   0.000   0.000   0.000   0.000   0.000  -0.000  -0.000  -0.000
 -0.000  -0.000   0.000  -0.000  -0.000  -0.000   0.000   0.000  -0.000  -0.000  -0.000  -0.000   0.000   0.000   0.000  -0.000
  0.000   0.000  -0.000  -0.000  -0.000   0.000  -0.000   0.000  -0.000   0.000  -0.000   0.000  -0.000   0.000  -0.000   0.000
  0.000   0.000  -0.000  -0.000  -0.000   0.000   0.000   0.000  -0.000  -0.000  -0.000  -0.000   0.000   0.000   0.000   0.000
  0.000  -0.000  -0.000  -0.000  -0.000   0.000   0.000   0.000  -0.000   0.000  -0.000   0.000  -0.000   0.000  -0.000   0.000
  0.000  -0.000  -0.000  -0.000  -0.000   0.000   0.000   0.000   0.000  -0.000   0.000  -0.000   0.000  -0.000   0.000  -0.000
  0.000   0.000  -0.000   0.000   0.000   0.000  -0.000  -0.000   0.000   0.000   0.000   0.000  -0.000  -0.000  -0.000  -0.000
 -0.000  -0.000   0.000   0.000   0.000  -0.000   0.000  -0.000   0.000  -0.000   0.000  -0.000   0.000  -0.000   0.000  -0.000
 -0.000  -0.000   0.000   0.000  -0.000  -0.000  -0.000  -0.000  -0.000   0.000   0.000   0.000  -0.000  -0.000  -0.000  -0.000
 -0.000   0.000   0.000   0.000   0.000  -0.000  -0.000  -0.000   0.000  -0.000   0.000  -0.000   0.000  -0.000   0.000  -0.000
 -0.000   0.000   0.000   0.000   0.000  -0.000  -0.000  -0.000  -0.000   0.000  -0.000  -0.000  -0.000   0.000  -0.000   0.000


------------------------ aborting loop because EDIFF is reached ----------------------------------------


 


 total charge     
 
# of ion       s       p       d       tot
------------------------------------------
    1        2.017   5.843   0.233   8.094
    2        2.017   5.843   0.232   8.092
    3        2.017   5.843   0.233   8.093
    4        2.017   5.843   0.233   8.094
    5        0.700   0.652   9.754  11.105
    6        0.698   0.646   9.753  11.096
    7        1.258   2.390   0.000   3.648
    8        1.258   2.392   0.000   3.650
    9        1.258   2.390   0.000   3.648
   10        1.259   2.389   0.000   3.648
--------------------------------------------------
tot         14.499  34.231  20.439  69.169
 


 magnetization (x)
 
# of ion       s       p       d       tot
------------------------------------------
    1        0.000   0.000   0.000   0.000
    2        0.000   0.000   0.000   0.000
    3        0.000   0.000   0.000   0.000
    4        0.000   0.000   0.000   0.000
    5        0.000   0.000  -0.000   0.000
    6        0.000   0.000  -0.000   0.000
    7       -0.000  -0.000   0.000  -0.000
    8       -0.000  -0.000   0.000  -0.000
    9       -0.000  -0.000   0.000  -0.000
   10       -0.000  -0.000   0.000  -0.000
--------------------------------------------------
tot          0.000  -0.000   0.000  -0.000
 
    CHARGE:  cpu time    0.1194: real time    0.1195
    FORLOC:  cpu time    0.0007: real time    0.0007
    FORNL :  cpu time    0.6203: real time    0.6204
    STRESS:  cpu time   18.6834: real time   18.6856
    FORCOR:  cpu time    0.0301: real time    0.0304
    FORHAR:  cpu time    0.0023: real time    0.0025
    MIXING:  cpu time    0.0008: real time    0.0008
    OFIELD:  cpu time    0.0001: real time    0.0001

  FORCE on cell =-STRESS in cart. coord.  units (eV):
  Direction    XX          YY          ZZ          XY          YZ          ZX
  --------------------------------------------------------------------------------------
  Alpha Z   487.77387   487.77387   487.77387
  Ewald   -2222.81132 -2222.81051 -1158.61008    -0.00001    -0.00000    -0.49474
  Hartree   510.60142   510.60186  1126.91977    -0.00000    -0.00000    -0.31474
  E(xc)    -403.64050  -403.64048  -404.26874    -0.00000    -0.00000    -0.00042
  Local     716.95910   716.95801  -915.88230     0.00001     0.00001     0.79850
  n-local  -301.54464  -301.54458  -289.45158    -0.00000     0.00000    -0.00280
  augment   115.41858   115.41860   111.01237     0.00000    -0.00000     0.00183
  Kinetic  1097.13798  1097.13769  1042.58514    -0.00000     0.00000     0.00875
  Fock        0.00000     0.00000     0.00000     0.00000     0.00000     0.00000
  -------------------------------------------------------------------------------------
  Total      -0.10551    -0.10555     0.07845    -0.00000    -0.00000    -0.00363
  in kB      -0.89250    -0.89278     0.66358    -0.00001    -0.00000    -0.03073
  external pressure =       -0.37 kB  Pullay stress =        0.00 kB


 VOLUME and BASIS-vectors are now :
 -----------------------------------------------------------------------------
  energy-cutoff  :      520.00
  volume of cell :      189.41
      direct lattice vectors                 reciprocal lattice vectors
     3.851102821  0.000000006 -0.000000101     0.259665879 -0.000000000  0.000000007
     0.000000007  3.851102715 -0.000000006    -0.000000000  0.259665886  0.000000000
    -0.000000333 -0.000000021 12.771321364     0.000000002  0.000000000  0.078300434

  length of vectors
     3.851102821  3.851102715 12.771321364     0.259665879  0.259665886  0.078300434


 FORCES acting on ions
    electron-ion (+dipol)            ewald-force                    non-local-force                 convergence-correction
 -----------------------------------------------------------------------------------------------
   -.300E-03 -.242E-04 0.185E+01   -.220E-03 0.231E-04 -.427E+01   0.428E-03 0.159E-05 0.241E+01   0.709E-07 -.873E-07 0.743E-04
   0.624E-01 -.348E-05 -.322E+01   -.585E-01 0.367E-05 0.557E+01   -.315E-02 -.807E-07 -.234E+01   -.108E-05 0.467E-07 0.924E-04
   -.316E+00 -.362E-05 0.393E+01   0.295E+00 0.345E-05 -.623E+01   0.250E-01 0.428E-06 0.233E+01   0.319E-05 -.694E-07 -.777E-04
   -.422E-02 -.317E-04 -.279E+01   0.489E-02 0.308E-04 0.515E+01   -.663E-03 0.132E-05 -.238E+01   -.769E-06 0.112E-06 -.657E-04
   0.309E+00 0.105E-04 -.230E+01   -.300E+00 -.108E-04 0.251E+01   -.507E-02 0.561E-06 -.563E-01   0.378E-05 -.201E-06 -.213E-03
   -.157E-02 0.762E-05 -.607E+00   0.191E-02 -.802E-05 0.541E+00   -.299E-03 0.327E-06 0.535E-01   0.258E-06 0.237E-06 0.165E-03
   0.710E-02 0.215E-04 -.130E+03   -.429E-02 -.216E-04 0.140E+03   -.468E-02 0.480E-07 -.104E+02   0.251E-06 -.233E-06 0.104E-03
   -.261E-01 0.139E-05 0.133E+03   0.482E-01 -.160E-05 -.144E+03   -.282E-01 0.817E-07 0.104E+02   0.497E-06 0.158E-06 -.177E-03
   -.129E-01 0.575E-05 -.130E+03   0.125E-01 -.601E-05 0.140E+03   0.835E-03 0.457E-06 -.104E+02   0.288E-06 -.129E-06 0.188E-03
   0.452E-04 0.129E-04 0.129E+03   0.930E-04 -.131E-04 -.140E+03   -.187E-03 -.364E-06 0.105E+02   0.221E-07 0.244E-06 -.112E-03
 -----------------------------------------------------------------------------------------------
   0.176E-01 -.354E-05 -.457E-01   -.148E-13 -.197E-13 0.142E-12   -.160E-01 0.437E-05 0.445E-01   0.651E-05 0.765E-07 -.211E-04
 
 
 POSITION                                       TOTAL-FORCE (eV/Angst)
 -----------------------------------------------------------------------------------
     -0.00000      3.85110      4.36603        -0.000250      0.000000     -0.010747
      0.00000     -0.00000      8.40529         0.000541      0.000000      0.013415
      1.92555      1.92555     10.75169         0.003764      0.000000      0.030515
      1.92555      1.92555      2.01963        -0.000148      0.000000     -0.015344
      3.85110      0.00000      0.00000         0.004277     -0.000000      0.159694
      1.92555      1.92555      6.38566        -0.000125     -0.000000     -0.012615
      3.85110      0.00000      1.82205        -0.002048     -0.000000      0.011899
      0.00289      0.00000     10.95885        -0.006051     -0.000000     -0.209499
      1.92555      1.92555      8.20771         0.000247     -0.000000      0.006640
      1.92555      1.92555      4.56362        -0.000207     -0.000000      0.026041
 -----------------------------------------------------------------------------------
    total drift:                                0.001585      0.000001     -0.001236


--------------------------------------------------------------------------------------------------------



  FREE ENERGIE OF THE ION-ELECTRON SYSTEM (eV)
  ---------------------------------------------------
  free  energy   TOTEN  =      -160.73111664 eV

  energy  without entropy=     -160.73111664  energy(sigma->0) =     -160.73111664
 


--------------------------------------------------------------------------------------------------------


    POTLOK:  cpu time    0.9372: real time    0.9374


--------------------------------------------------------------------------------------------------------


     LOOP+:  cpu time  271.5265: real time  271.9145
    4ORBIT:  cpu time    0.0000: real time    0.0000
 


 total charge     
 
# of ion       s       p       d       tot
------------------------------------------
    1        2.017   5.843   0.233   8.094
    2        2.017   5.843   0.232   8.092
    3        2.017   5.843   0.233   8.093
    4        2.017   5.843   0.233   8.094
    5        0.700   0.652   9.754  11.105
    6        0.698   0.646   9.753  11.096
    7        1.258   2.390   0.000   3.648
    8        1.258   2.392   0.000   3.650
    9        1.258   2.390   0.000   3.648
   10        1.259   2.389   0.000   3.648
--------------------------------------------------
tot         14.499  34.231  20.439  69.169
 


 magnetization (x)
 
# of ion       s       p       d       tot
------------------------------------------
    1        0.000   0.000   0.000   0.000
    2        0.000   0.000   0.000   0.000
    3        0.000   0.000   0.000   0.000
    4        0.000   0.000   0.000   0.000
    5        0.000   0.000  -0.000   0.000
    6        0.000   0.000  -0.000   0.000
    7       -0.000  -0.000   0.000  -0.000
    8       -0.000  -0.000   0.000  -0.000
    9       -0.000  -0.000   0.000  -0.000
   10       -0.000  -0.000   0.000  -0.000
--------------------------------------------------
tot          0.000  -0.000   0.000  -0.000
 

 total amount of memory used by VASP MPI-rank0   107651. kBytes
=======================================================================

   base      :      30000. kBytes
   nonl-proj :      55074. kBytes
   fftplans  :       1092. kBytes
   grid      :       4533. kBytes
   one-center:         93. kBytes
   wavefun   :      16859. kBytes
 
  
  
 General timing and accounting informations for this job:
 ========================================================
  
                  Total CPU time used (sec):      280.774
                            User time (sec):      273.778
                          System time (sec):        6.996
                         Elapsed time (sec):      281.789
  
                   Maximum memory used (kb):      169968.
                   Average memory used (kb):           0.
  
                          Minor page faults:        49727
                          Major page faults:            0
                 Voluntary context switches:          754
