5    
10   

1    
  0.0099999999981080  -0.0000001941265445  -0.0000000124787988
  -0.0423202600   -0.0000059200   -0.0000264500
   0.0062547600   -0.0001531900    0.0074917200
   0.0060343500    0.0001607000   -0.0074462900
   0.0151008900   -0.0002066300    0.0071856600
   0.0149302700    0.0002050500   -0.0072046400

1    
 -0.0000000114096547   0.0000000060462581   0.0099999999999917
   0.0000074300   -0.0000005500   -0.1046982800
   0.0001099800   -0.0000660200    0.0601338600
  -0.0001097800    0.0000652400    0.0453130700
   0.0000805800   -0.0000496400    0.0067957300
  -0.0000882100    0.0000509700   -0.0075443800

2    
  0.0099999999981080  -0.0000001941265445  -0.0000000124787988
   0.0243899400    0.0037778700    0.0047164800
  -0.1339492900   -0.0131191700   -0.0121406700
   0.0360766700    0.0034280600   -0.0036283300
   0.0190366000    0.0036407700    0.0114313600
   0.0544460900    0.0022724700   -0.0003788300

2    
 -0.0099999999981080   0.0000001941265445   0.0000000124787988
  -0.0244386400    0.0037561400    0.0048588100
   0.1342486500   -0.0129207300   -0.0127334300
  -0.0363325700    0.0033718100   -0.0034775900
  -0.0189102300    0.0036071600    0.0115888400
  -0.0545672100    0.0021856200   -0.0002366300

2    
 -0.0000000114096547   0.0000000060462581   0.0099999999999917
  -0.0000171600    0.0000172800    0.0705692600
   0.0000873500   -0.0000550900   -0.1543269800
  -0.0001221300    0.0000716000    0.0138527900
   0.0000700100   -0.0000415400    0.0398035100
  -0.0000180700    0.0000077500    0.0301014300

2    
  0.0000000114096547  -0.0000000060462581  -0.0099999999999917
  -0.0000579700    0.0000434600   -0.0732044800
   0.0003175100   -0.0001887000    0.1820327300
  -0.0001675800    0.0000977000   -0.0329196000
   0.0000275400   -0.0000217000   -0.0282626500
  -0.0001195000    0.0000692500   -0.0476460000

4    
  0.0099999999981080  -0.0000001941265445  -0.0000000124787988
   0.0154836700   -0.0002657500   -0.0003051800
   0.0012321100   -0.0004804400    0.0074750000
   0.0373542900   -0.0012122500   -0.0069714800
  -0.0614602300    0.0023303100    0.0067603500
   0.0073901600   -0.0003718700   -0.0069586900

4    
 -0.0099999999981080   0.0000001941265445   0.0000000124787988
  -0.0154698200   -0.0002318100   -0.0002795100
  -0.0010147600   -0.0004518300    0.0074952900
  -0.0375794400   -0.0013410900   -0.0070492600
   0.0616261700    0.0023585900    0.0067709200
  -0.0075621400   -0.0003338600   -0.0069374400

4    
 -0.0000000114096547   0.0000000060462581   0.0099999999999917
   0.0000070700    0.0000007800   -0.0002792300
   0.0001126000   -0.0000678500    0.0242248500
  -0.0001254400    0.0000741600    0.0128166200
   0.0000911300   -0.0000546600   -0.0701467400
  -0.0000853600    0.0000475700    0.0333845100

4    
  0.0000000114096547  -0.0000000060462581  -0.0099999999999917
   0.0000064400    0.0000012400   -0.0005452300
   0.0001042700   -0.0000630200   -0.0078129100
  -0.0000992300    0.0000588100   -0.0288822400
   0.0000780400   -0.0000465600    0.0850093400
  -0.0000895200    0.0000495400   -0.0477689600
