 vasp.6.1.2 22Jul20 (build Apr 14 2021 21:39:43) complex                        
  
 executed on             LinuxIFC date 2022.07.09  08:17:32
 running on   64 total cores
 distrk:  each k-point on   64 cores,    1 groups
 distr:  one band on NCORE=   4 cores,   16 groups


--------------------------------------------------------------------------------------------------------


 INCAR:
 POTCAR:    PAW_PBE Zn 06Sep2000                  
 POTCAR:    PAW_PBE Ca_sv 06Sep2000               
 POTCAR:    PAW_PBE N 08Apr2002                   
 POTCAR:    PAW_PBE Zn 06Sep2000                  
   SHA256 =  501fddbd8274dd8e9725d4f3de27861d7f1e553a7e18441bc79fed8f346e7f23 Zn/POTCAR             
   COPYR  = (c) Copyright 06Sep2000 Georg Kresse                                                    
   COPYR  = This file is part of the software VASP. Any use, copying, and all other rights are regul
   COPYR  = If you do not have a valid VASP license, you may not use, copy or distribute this file. 
   VRHFIN =Zn: d10 p2                                                                               
   LEXCH  = PE                                                                                      
   EATOM  =  1748.8345 eV,  128.5357 Ry                                                             
                                                                                                    
   TITEL  = PAW_PBE Zn 06Sep2000                                                                    
   LULTRA =        F    use ultrasoft PP ?                                                          
   IUNSCR =        1    unscreen: 0-lin 1-nonlin 2-no                                               
   RPACOR =    2.000    partial core radius                                                         
   POMASS =   65.390; ZVAL   =   12.000    mass and valenz                                          
   RCORE  =    2.300    outmost cutoff radius                                                       
   RWIGS  =    2.400; RWIGS  =    1.270    wigner-seitz radius (au A)                               
   ENMAX  =  276.723; ENMIN  =  207.542 eV                                                          
   RCLOC  =    1.828    cutoff for local pot                                                        
   LCOR   =        T    correct aug charges                                                         
   LPAW   =        T    paw PP                                                                      
   EAUG   =  575.892                                                                                
   DEXC   =    0.000                                                                                
   RMAX   =    2.347    core radius for proj-oper                                                   
   RAUG   =    1.300    factor for augmentation sphere                                              
   RDEP   =    2.324    radius for radial grids                                                     
   RDEPT  =    1.788    core radius for aug-charge                                                  
                                                                                                    
   Atomic configuration                                                                             
    9 entries                                                                                       
     n  l   j            E        occ.                                                              
     1  0  0.50     -9524.6913   2.0000                                                             
     2  0  0.50     -1158.1882   2.0000                                                             
     2  1  1.50     -1003.8506   6.0000                                                             
     3  0  0.50      -129.2194   2.0000                                                             
     3  1  1.50       -83.3890   6.0000                                                             
     3  2  2.50       -10.1410  10.0000                                                             
     4  0  0.50        -5.9785   2.0000                                                             
     4  1  0.50        -4.0817   0.0000                                                             
     4  3  2.50        -1.3606   0.0000                                                             
   Description                                                                                      
     l       E           TYP  RCUT    TYP  RCUT                                                     
     2    -10.1410010     23  2.300                                                                 
     2    -11.5015836     23  2.300                                                                 
     0     -5.9785163     23  2.300                                                                 
     0      1.1858015     23  2.300                                                                 
     1     -2.7211652     23  2.300                                                                 
     1     13.2444212     23  2.300                                                                 
  local pseudopotential read in
  partial core-charges read in
  partial kinetic energy density read in
  atomic valenz-charges read in
  non local Contribution for L=           2  read in
    real space projection operators read in
  non local Contribution for L=           2  read in
    real space projection operators read in
  non local Contribution for L=           0  read in
    real space projection operators read in
  non local Contribution for L=           0  read in
    real space projection operators read in
  non local Contribution for L=           1  read in
    real space projection operators read in
  non local Contribution for L=           1  read in
    real space projection operators read in
    PAW grid and wavefunctions read in
 
   number of l-projection  operators is LMAX  =           6
   number of lm-projection operators is LMMAX =          18
 
 POTCAR:    PAW_PBE Ca_sv 06Sep2000               
   SHA256 =  a47365830e737f14e0e6c5cf1ed81b94e081eecf0a33df105380881bc9da05d5 Ca_sv/POTCAR          
   COPYR  = (c) Copyright 06Sep2000 Georg Kresse                                                    
   COPYR  = This file is part of the software VASP. Any use, copying, and all other rights are regul
   COPYR  = If you do not have a valid VASP license, you may not use, copy or distribute this file. 
   VRHFIN =Ca: 3s3p4s                                                                               
   LEXCH  = PE                                                                                      
   EATOM  =  1006.0909 eV,   73.9456 Ry                                                             
                                                                                                    
   TITEL  = PAW_PBE Ca_sv 06Sep2000                                                                 
   LULTRA =        F    use ultrasoft PP ?                                                          
   IUNSCR =        1    unscreen: 0-lin 1-nonlin 2-no                                               
   RPACOR =    2.000    partial core radius                                                         
   POMASS =   40.078; ZVAL   =   10.000    mass and valenz                                          
   RCORE  =    2.300    outmost cutoff radius                                                       
   RWIGS  =    2.500; RWIGS  =    1.323    wigner-seitz radius (au A)                               
   ENMAX  =  266.622; ENMIN  =  199.967 eV                                                          
   RCLOC  =    1.808    cutoff for local pot                                                        
   LCOR   =        T    correct aug charges                                                         
   LPAW   =        T    paw PP                                                                      
   EAUG   =  420.852                                                                                
   RMAX   =    2.359    core radius for proj-oper                                                   
   RAUG   =    1.300    factor for augmentation sphere                                              
   RDEP   =    2.392    radius for radial grids                                                     
   RDEPT  =    1.987    core radius for aug-charge                                                  
                                                                                                    
   Atomic configuration                                                                             
    7 entries                                                                                       
     n  l   j            E        occ.                                                              
     1  0  0.50     -3949.1705   2.0000                                                             
     2  0  0.50      -414.3434   2.0000                                                             
     2  1  1.50      -334.7047   6.0000                                                             
     3  0  0.50       -47.0896   2.0000                                                             
     4  0  0.50        -3.7663   2.0000                                                             
     3  1  1.50       -28.0061   6.0000                                                             
     3  2  1.50        -4.0817   0.0000                                                             
   Description                                                                                      
     l       E           TYP  RCUT    TYP  RCUT                                                     
     0    -47.0896403     23  2.300                                                                 
     0     -3.7663320     23  2.300                                                                 
     1    -28.0060855     23  2.300                                                                 
     1      6.8029130     23  2.300                                                                 
     2     -4.0817478     23  2.300                                                                 
     2      0.4464412     23  2.300                                                                 
  local pseudopotential read in
  partial core-charges read in
  partial kinetic energy density read in
  atomic valenz-charges read in
  non local Contribution for L=           0  read in
    real space projection operators read in
  non local Contribution for L=           0  read in
    real space projection operators read in
  non local Contribution for L=           1  read in
    real space projection operators read in
  non local Contribution for L=           1  read in
    real space projection operators read in
  non local Contribution for L=           2  read in
    real space projection operators read in
  non local Contribution for L=           2  read in
    real space projection operators read in
    PAW grid and wavefunctions read in
 
   number of l-projection  operators is LMAX  =           6
   number of lm-projection operators is LMMAX =          18
 
 POTCAR:    PAW_PBE N 08Apr2002                   
   SHA256 =  e053789ff3a61a86a1b75d8a110fcc91f86041011e7b0817c7c99e4e8a6349d7 N/POTCAR              
   COPYR  = (c) Copyright 08Apr2002 Georg Kresse                                                    
   COPYR  = This file is part of the software VASP. Any use, copying, and all other rights are regul
   COPYR  = If you do not have a valid VASP license, you may not use, copy or distribute this file. 
   VRHFIN =N: s2p3                                                                                  
   LEXCH  = PE                                                                                      
   EATOM  =   264.5486 eV,   19.4438 Ry                                                             
                                                                                                    
   TITEL  = PAW_PBE N 08Apr2002                                                                     
   LULTRA =        F    use ultrasoft PP ?                                                          
   IUNSCR =        1    unscreen: 0-lin 1-nonlin 2-no                                               
   RPACOR =    1.200    partial core radius                                                         
   POMASS =   14.001; ZVAL   =    5.000    mass and valenz                                          
   RCORE  =    1.500    outmost cutoff radius                                                       
   RWIGS  =    1.400; RWIGS  =    0.741    wigner-seitz radius (au A)                               
   ENMAX  =  400.000; ENMIN  =  300.000 eV                                                          
   ICORE  =        2    local potential                                                             
   LCOR   =        T    correct aug charges                                                         
   LPAW   =        T    paw PP                                                                      
   EAUG   =  627.112                                                                                
   DEXC   =    0.000                                                                                
   RMAX   =    1.529    core radius for proj-oper                                                   
   RAUG   =    1.300    factor for augmentation sphere                                              
   RDEP   =    1.514    radius for radial grids                                                     
   RDEPT  =    1.338    core radius for aug-charge                                                  
                                                                                                    
   Atomic configuration                                                                             
    4 entries                                                                                       
     n  l   j            E        occ.                                                              
     1  0  0.50      -384.7179   2.0000                                                             
     2  0  0.50       -18.5828   2.0000                                                             
     2  1  0.50        -7.0898   3.0000                                                             
     3  2  1.50        -6.8029   0.0000                                                             
   Description                                                                                      
     l       E           TYP  RCUT    TYP  RCUT                                                     
     0    -18.5828119     23  1.200                                                                 
     0    -13.5018863     23  1.200                                                                 
     1     -7.0897853     23  1.500                                                                 
     1      9.5240782     23  1.500                                                                 
     2     -6.8029130      7  1.500                                                                 
  local pseudopotential read in
  partial core-charges read in
  partial kinetic energy density read in
  atomic valenz-charges read in
  non local Contribution for L=           0  read in
    real space projection operators read in
  non local Contribution for L=           0  read in
    real space projection operators read in
  non local Contribution for L=           1  read in
    real space projection operators read in
  non local Contribution for L=           1  read in
    real space projection operators read in
    PAW grid and wavefunctions read in
 
   number of l-projection  operators is LMAX  =           4
   number of lm-projection operators is LMMAX =           8
 
  PAW_PBE Zn 06Sep2000                  :
 energy of atom  1       EATOM=-1748.8345
 kinetic energy error for atom=    0.0029 (will be added to EATOM!!)
  PAW_PBE Ca_sv 06Sep2000               :
 energy of atom  2       EATOM=-1006.0909
 kinetic energy error for atom=    0.0022 (will be added to EATOM!!)
  PAW_PBE N 08Apr2002                   :
 energy of atom  3       EATOM= -264.5486
 kinetic energy error for atom=    0.0125 (will be added to EATOM!!)
 
 
 POSCAR: generated by phonopy
  positions in direct lattice
  No initial velocities read in

 METAGGA = SCAN     LMAXTAU =  6    LMIXTAU =  F

 exchange correlation table for  LEXCH =        8
   RHO(1)=    0.500       N(1)  =     2000
   RHO(2)=  100.500       N(2)  =     4000
 


--------------------------------------------------------------------------------------------------------


 ion  position               nearest neighbor table
   1  1.000  0.000  0.000-   7 1.81   8 1.82
   2  0.500  0.500  0.500-  10 1.82   9 1.82
   3  0.000  1.000  0.338-   7 2.40
   4  0.000  0.000  0.662-   8 2.40
   5  0.500  0.500  0.838-   9 2.40
   6  0.500  0.500  0.162-  10 2.40
   7  0.999  0.000  0.145-   1 1.81   3 2.40
   8  1.000  0.000  0.854-   1 1.82   4 2.40
   9  0.500  0.500  0.646-   2 1.82   5 2.40
  10  0.500  0.500  0.354-   2 1.82   6 2.40
 

IMPORTANT INFORMATION: All symmetrisations will be switched off!
NOSYMM: (Re-)initialisation of all symmetry stuff for point group C_1.


----------------------------------------------------------------------------------------

                                     Primitive cell                                     

  volume of cell :     159.5304

  direct lattice vectors                    reciprocal lattice vectors
     3.574043013  0.000000006 -0.000000042     0.279795178 -0.000000001  0.000000003
     0.000000007  3.574042987 -0.000000007    -0.000000001  0.279795180  0.000000001
    -0.000000145 -0.000000025 12.488892887     0.000000001  0.000000000  0.080071149

  length of vectors
     3.574043013  3.574042987 12.488892887     0.279795178  0.279795180  0.080071149

  position of ions in fractional coordinates (direct lattice)
     0.999999985  0.000000001  0.000000143
     0.499999986  0.499999998  0.499999908
     0.000000127  1.000000000  0.337567670
     0.000000119  0.000000013  0.662432335
     0.500000146  0.500000005  0.837567650
     0.500000111  0.499999986  0.162432349
     0.999230045  0.000000019  0.145005538
     0.999999906  0.000000003  0.854224458
     0.499999894  0.499999999  0.645775510
     0.499999872  0.499999976  0.354224629

  ion indices of the primitive-cell ions
   primitive index   ion index
                 1           1
                 2           2
                 3           3
                 4           4
                 5           5
                 6           6
                 7           7
                 8           8
                 9           9
                10          10

----------------------------------------------------------------------------------------

 
 
 KPOINTS: Kpoints                                 

Automatic generation of k-mesh.
 generate k-points for:    9    9    3
Space group operators:
 irot       det(A)        alpha          n_x          n_y          n_z        tau_x        tau_y        tau_z
    1     1.000000     0.000000     1.000000     0.000000     0.000000     0.000000     0.000000     0.000000
 
 Subroutine IBZKPT returns following result:
 ===========================================
 
 Found    122 irreducible k-points:
 
 Following reciprocal coordinates:
            Coordinates               Weight
  0.000000  0.000000  0.000000      1.000000
  0.111111  0.000000 -0.000000      2.000000
 -0.000000  0.111111  0.000000      2.000000
  0.222222  0.000000 -0.000000      2.000000
 -0.000000  0.222222  0.000000      2.000000
  0.333333  0.000000  0.000000      2.000000
 -0.000000  0.333333  0.000000      2.000000
  0.444444  0.000000  0.000000      2.000000
 -0.000000  0.444444  0.000000      2.000000
  0.111111  0.111111 -0.000000      2.000000
 -0.111111  0.111111  0.000000      2.000000
  0.222222  0.111111 -0.000000      2.000000
 -0.111111  0.222222  0.000000      2.000000
 -0.222222  0.111111  0.000000      2.000000
  0.111111  0.222222 -0.000000      2.000000
  0.333333  0.111111  0.000000      2.000000
 -0.111111  0.333333  0.000000      2.000000
 -0.333333  0.111111 -0.000000      2.000000
  0.111111  0.333333 -0.000000      2.000000
  0.444444  0.111111  0.000000      2.000000
 -0.111111  0.444444  0.000000      2.000000
 -0.444444  0.111111 -0.000000      2.000000
  0.111111  0.444444 -0.000000      2.000000
  0.222222  0.222222 -0.000000      2.000000
 -0.222222  0.222222  0.000000      2.000000
  0.333333  0.222222  0.000000      2.000000
 -0.222222  0.333333  0.000000      2.000000
 -0.333333  0.222222 -0.000000      2.000000
  0.222222  0.333333 -0.000000      2.000000
  0.444444  0.222222  0.000000      2.000000
 -0.222222  0.444444  0.000000      2.000000
 -0.444444  0.222222 -0.000000      2.000000
  0.222222  0.444444 -0.000000      2.000000
  0.333333  0.333333  0.000000      2.000000
 -0.333333  0.333333 -0.000000      2.000000
  0.444444  0.333333  0.000000      2.000000
 -0.333333  0.444444 -0.000000      2.000000
 -0.444444  0.333333 -0.000000      2.000000
  0.333333  0.444444  0.000000      2.000000
  0.444444  0.444444  0.000000      2.000000
 -0.444444  0.444444  0.000000      2.000000
  0.000000 -0.000000  0.333333      2.000000
  0.111111  0.000000  0.333333      2.000000
  0.000000  0.111111  0.333333      2.000000
 -0.111111 -0.000000  0.333333      2.000000
  0.000000 -0.111111  0.333333      2.000000
  0.222222  0.000000  0.333333      2.000000
 -0.000000  0.222222  0.333333      2.000000
 -0.222222 -0.000000  0.333333      2.000000
  0.000000 -0.222222  0.333333      2.000000
  0.333333  0.000000  0.333333      2.000000
 -0.000000  0.333333  0.333333      2.000000
 -0.333333 -0.000000  0.333333      2.000000
  0.000000 -0.333333  0.333333      2.000000
  0.444444  0.000000  0.333333      2.000000
 -0.000000  0.444444  0.333333      2.000000
 -0.444444 -0.000000  0.333333      2.000000
  0.000000 -0.444444  0.333333      2.000000
  0.111111  0.111111  0.333333      2.000000
 -0.111111  0.111111  0.333333      2.000000
 -0.111111 -0.111111  0.333333      2.000000
  0.111111 -0.111111  0.333333      2.000000
  0.222222  0.111111  0.333333      2.000000
 -0.111111  0.222222  0.333333      2.000000
 -0.222222 -0.111111  0.333333      2.000000
  0.111111 -0.222222  0.333333      2.000000
 -0.222222  0.111111 -0.333333      2.000000
  0.111111  0.222222 -0.333333      2.000000
  0.222222 -0.111111 -0.333333      2.000000
 -0.111111 -0.222222 -0.333333      2.000000
  0.333333  0.111111  0.333333      2.000000
 -0.111111  0.333333  0.333333      2.000000
 -0.333333 -0.111111  0.333333      2.000000
  0.111111 -0.333333  0.333333      2.000000
 -0.333333  0.111111 -0.333333      2.000000
  0.111111  0.333333 -0.333333      2.000000
  0.333333 -0.111111 -0.333333      2.000000
 -0.111111 -0.333333 -0.333333      2.000000
  0.444444  0.111111  0.333333      2.000000
 -0.111111  0.444444  0.333333      2.000000
 -0.444444 -0.111111  0.333333      2.000000
  0.111111 -0.444444  0.333333      2.000000
 -0.444444  0.111111 -0.333333      2.000000
  0.111111  0.444444 -0.333333      2.000000
  0.444444 -0.111111 -0.333333      2.000000
 -0.111111 -0.444444 -0.333333      2.000000
  0.222222  0.222222  0.333333      2.000000
 -0.222222  0.222222  0.333333      2.000000
 -0.222222 -0.222222  0.333333      2.000000
  0.222222 -0.222222  0.333333      2.000000
  0.333333  0.222222  0.333333      2.000000
 -0.222222  0.333333  0.333333      2.000000
 -0.333333 -0.222222  0.333333      2.000000
  0.222222 -0.333333  0.333333      2.000000
 -0.333333  0.222222 -0.333333      2.000000
  0.222222  0.333333 -0.333333      2.000000
  0.333333 -0.222222 -0.333333      2.000000
 -0.222222 -0.333333 -0.333333      2.000000
  0.444444  0.222222  0.333333      2.000000
 -0.222222  0.444444  0.333333      2.000000
 -0.444444 -0.222222  0.333333      2.000000
  0.222222 -0.444444  0.333333      2.000000
 -0.444444  0.222222 -0.333333      2.000000
  0.222222  0.444444 -0.333333      2.000000
  0.444444 -0.222222 -0.333333      2.000000
 -0.222222 -0.444444 -0.333333      2.000000
  0.333333  0.333333  0.333333      2.000000
 -0.333333  0.333333  0.333333      2.000000
 -0.333333 -0.333333  0.333333      2.000000
  0.333333 -0.333333  0.333333      2.000000
  0.444444  0.333333  0.333333      2.000000
 -0.333333  0.444444  0.333333      2.000000
 -0.444444 -0.333333  0.333333      2.000000
  0.333333 -0.444444  0.333333      2.000000
 -0.444444  0.333333 -0.333333      2.000000
  0.333333  0.444444 -0.333333      2.000000
  0.444444 -0.333333 -0.333333      2.000000
 -0.333333 -0.444444 -0.333333      2.000000
  0.444444  0.444444  0.333333      2.000000
 -0.444444  0.444444  0.333333      2.000000
 -0.444444 -0.444444  0.333333      2.000000
  0.444444 -0.444444  0.333333      2.000000
 
 Following cartesian coordinates:
            Coordinates               Weight
  0.000000  0.000000  0.000000      1.000000
  0.031088 -0.000000  0.000000      2.000000
 -0.000000  0.031088  0.000000      2.000000
  0.062177 -0.000000  0.000000      2.000000
 -0.000000  0.062177  0.000000      2.000000
  0.093265 -0.000000  0.000000      2.000000
 -0.000000  0.093265  0.000000      2.000000
  0.124353 -0.000000  0.000000      2.000000
 -0.000000  0.124353  0.000000      2.000000
  0.031088  0.031088  0.000000      2.000000
 -0.031088  0.031088 -0.000000      2.000000
  0.062177  0.031088  0.000000      2.000000
 -0.031088  0.062177 -0.000000      2.000000
 -0.062177  0.031088 -0.000000      2.000000
  0.031088  0.062177  0.000000      2.000000
  0.093265  0.031088  0.000000      2.000000
 -0.031088  0.093265 -0.000000      2.000000
 -0.093265  0.031088 -0.000000      2.000000
  0.031088  0.093265  0.000000      2.000000
  0.124353  0.031088  0.000000      2.000000
 -0.031088  0.124353 -0.000000      2.000000
 -0.124353  0.031088 -0.000000      2.000000
  0.031088  0.124353  0.000000      2.000000
  0.062177  0.062177  0.000000      2.000000
 -0.062177  0.062177 -0.000000      2.000000
  0.093265  0.062177  0.000000      2.000000
 -0.062177  0.093265 -0.000000      2.000000
 -0.093265  0.062177 -0.000000      2.000000
  0.062177  0.093265  0.000000      2.000000
  0.124353  0.062177  0.000000      2.000000
 -0.062177  0.124353 -0.000000      2.000000
 -0.124353  0.062177 -0.000000      2.000000
  0.062177  0.124353  0.000000      2.000000
  0.093265  0.093265  0.000000      2.000000
 -0.093265  0.093265 -0.000000      2.000000
  0.124353  0.093265  0.000000      2.000000
 -0.093265  0.124353 -0.000000      2.000000
 -0.124353  0.093265 -0.000000      2.000000
  0.093265  0.124353  0.000000      2.000000
  0.124353  0.124353  0.000000      2.000000
 -0.124353  0.124353 -0.000000      2.000000
  0.000000  0.000000  0.026690      2.000000
  0.031088 -0.000000  0.026690      2.000000
  0.000000  0.031088  0.026690      2.000000
 -0.031088  0.000000  0.026690      2.000000
  0.000000 -0.031088  0.026690      2.000000
  0.062177 -0.000000  0.026690      2.000000
  0.000000  0.062177  0.026690      2.000000
 -0.062177  0.000000  0.026690      2.000000
  0.000000 -0.062177  0.026690      2.000000
  0.093265 -0.000000  0.026690      2.000000
  0.000000  0.093265  0.026690      2.000000
 -0.093265  0.000000  0.026690      2.000000
  0.000000 -0.093265  0.026690      2.000000
  0.124353 -0.000000  0.026690      2.000000
  0.000000  0.124353  0.026690      2.000000
 -0.124353  0.000000  0.026690      2.000000
  0.000000 -0.124353  0.026690      2.000000
  0.031088  0.031088  0.026690      2.000000
 -0.031088  0.031088  0.026690      2.000000
 -0.031088 -0.031088  0.026690      2.000000
  0.031088 -0.031088  0.026690      2.000000
  0.062177  0.031088  0.026690      2.000000
 -0.031088  0.062177  0.026690      2.000000
 -0.062177 -0.031088  0.026690      2.000000
  0.031088 -0.062177  0.026690      2.000000
 -0.062177  0.031088 -0.026690      2.000000
  0.031088  0.062177 -0.026690      2.000000
  0.062177 -0.031088 -0.026690      2.000000
 -0.031088 -0.062177 -0.026690      2.000000
  0.093265  0.031088  0.026690      2.000000
 -0.031088  0.093265  0.026690      2.000000
 -0.093265 -0.031088  0.026690      2.000000
  0.031088 -0.093265  0.026690      2.000000
 -0.093265  0.031088 -0.026690      2.000000
  0.031088  0.093265 -0.026690      2.000000
  0.093265 -0.031088 -0.026690      2.000000
 -0.031088 -0.093265 -0.026690      2.000000
  0.124353  0.031088  0.026690      2.000000
 -0.031088  0.124353  0.026690      2.000000
 -0.124353 -0.031088  0.026690      2.000000
  0.031088 -0.124353  0.026690      2.000000
 -0.124353  0.031088 -0.026690      2.000000
  0.031088  0.124353 -0.026690      2.000000
  0.124353 -0.031088 -0.026690      2.000000
 -0.031088 -0.124353 -0.026690      2.000000
  0.062177  0.062177  0.026690      2.000000
 -0.062177  0.062177  0.026690      2.000000
 -0.062177 -0.062177  0.026690      2.000000
  0.062177 -0.062177  0.026690      2.000000
  0.093265  0.062177  0.026690      2.000000
 -0.062177  0.093265  0.026690      2.000000
 -0.093265 -0.062177  0.026690      2.000000
  0.062177 -0.093265  0.026690      2.000000
 -0.093265  0.062177 -0.026690      2.000000
  0.062177  0.093265 -0.026690      2.000000
  0.093265 -0.062177 -0.026690      2.000000
 -0.062177 -0.093265 -0.026690      2.000000
  0.124353  0.062177  0.026690      2.000000
 -0.062177  0.124353  0.026690      2.000000
 -0.124353 -0.062177  0.026690      2.000000
  0.062177 -0.124353  0.026690      2.000000
 -0.124353  0.062177 -0.026690      2.000000
  0.062177  0.124353 -0.026690      2.000000
  0.124353 -0.062177 -0.026690      2.000000
 -0.062177 -0.124353 -0.026690      2.000000
  0.093265  0.093265  0.026690      2.000000
 -0.093265  0.093265  0.026690      2.000000
 -0.093265 -0.093265  0.026690      2.000000
  0.093265 -0.093265  0.026690      2.000000
  0.124353  0.093265  0.026690      2.000000
 -0.093265  0.124353  0.026690      2.000000
 -0.124353 -0.093265  0.026690      2.000000
  0.093265 -0.124353  0.026690      2.000000
 -0.124353  0.093265 -0.026690      2.000000
  0.093265  0.124353 -0.026690      2.000000
  0.124353 -0.093265 -0.026690      2.000000
 -0.093265 -0.124353 -0.026690      2.000000
  0.124353  0.124353  0.026690      2.000000
 -0.124353  0.124353  0.026690      2.000000
 -0.124353 -0.124353  0.026690      2.000000
  0.124353 -0.124353  0.026690      2.000000
 


--------------------------------------------------------------------------------------------------------




 Dimension of arrays:
   k-points           NKPTS =    122   k-points in BZ     NKDIM =    122   number of bands    NBANDS=     64
   number of dos      NEDOS =    301   number of ions     NIONS =     10
   non local maximal  LDIM  =      6   non local SUM 2l+1 LMDIM =     18
   total plane-waves  NPLWV =  75264
   max r-space proj   IRMAX =      1   max aug-charges    IRDMAX=  22706
   dimension x,y,z NGX =    28 NGY =   28 NGZ =   96
   dimension x,y,z NGXF=    56 NGYF=   56 NGZF=  192
   support grid    NGXF=    56 NGYF=   56 NGZF=  192
   ions per type =               2   4   4
   NGX,Y,Z   is equivalent  to a cutoff of  13.02, 13.02, 12.78 a.u.
   NGXF,Y,Z  is equivalent  to a cutoff of  26.05, 26.05, 25.56 a.u.

 SYSTEM =  unknown system                          
 POSCAR =  generated by phonopy                    

 Startparameter for this run:
   NWRITE =      2    write-flag & timer
   PREC   = accura    normal or accurate (medium, high low for compatibility)
   ISTART =      0    job   : 0-new  1-cont  2-samecut
   ICHARG =      2    charge: 1-file 2-atom 10-const
   ISPIN  =      2    spin polarized calculation?
   LNONCOLLINEAR =      F non collinear calculations
   LSORBIT =      F    spin-orbit coupling
   INIWAV =      1    electr: 0-lowe 1-rand  2-diag
   LASPH  =      T    aspherical Exc in radial PAW
   METAGGA=      F    non-selfconsistent MetaGGA calc.

 Electronic Relaxation 1
   ENCUT  =  520.0 eV  38.22 Ry    6.18 a.u.   6.65  6.65 23.22*2*pi/ulx,y,z
   ENINI  =  520.0     initial cutoff
   ENAUG  =  627.1 eV  augmentation charge cutoff
   NELM   =    200;   NELMIN=  6; NELMDL= -5     # of ELM steps 
   EDIFF  = 0.1E-05   stopping-criterion for ELM
   LREAL  =      F    real-space projection
   NLSPLINE    = F    spline interpolate recip. space projectors
   LCOMPAT=      F    compatible to vasp.4.4
   GGA_COMPAT  = T    GGA compatible to vasp.4.4-vasp.4.6
   LMAXPAW     = -100 max onsite density
   LMAXMIX     =    2 max onsite mixed and CHGCAR
   VOSKOWN=      0    Vosko Wilk Nusair interpolation
   ROPT   =    0.00000   0.00000   0.00000
 Ionic relaxation
   EDIFFG = -.3E-01   stopping-criterion for IOM
   NSW    =      0    number of steps for IOM
   NBLOCK =      1;   KBLOCK =      1    inner block; outer block 
   IBRION =     -1    ionic relax: 0-MD 1-quasi-New 2-CG
   NFREE  =      0    steps in history (QN), initial steepest desc. (CG)
   ISIF   =      2    stress and relaxation
   IWAVPR =     10    prediction:  0-non 1-charg 2-wave 3-comb
   ISYM   =      0    0-nonsym 1-usesym 2-fastsym
   LCORR  =      T    Harris-Foulkes like correction to forces

   POTIM  = 0.5000    time-step for ionic-motion
   TEIN   =    0.0    initial temperature
   TEBEG  =    0.0;   TEEND  =   0.0 temperature during run
   SMASS  =  -3.00    Nose mass-parameter (am)
   estimated Nose-frequenzy (Omega)   =  0.10E-29 period in steps = 0.13E+47 mass=  -0.292E-27a.u.
   SCALEE = 1.0000    scale energy and forces
   NPACO  =    256;   APACO  = 16.0  distance and # of slots for P.C.
   PSTRESS=    0.0 pullay stress

  Mass of Ions in am
   POMASS =  65.39 40.08 14.00
  Ionic Valenz
   ZVAL   =  12.00 10.00  5.00
  Atomic Wigner-Seitz radii
   RWIGS  =  -1.00 -1.00 -1.00
  virtual crystal weights 
   VCA    =   1.00  1.00  1.00
   NELECT =      84.0000    total number of electrons
   NUPDOWN=      -1.0000    fix difference up-down

 DOS related values:
   EMIN   =  10.00;   EMAX   =-10.00  energy-range for DOS
   EFERMI =   0.00
   ISMEAR =     0;   SIGMA  =   0.05  broadening in eV -4-tet -1-fermi 0-gaus

 Electronic relaxation 2 (details)
   IALGO  =     38    algorithm
   LDIAG  =      T    sub-space diagonalisation (order eigenvalues)
   LSUBROT=      F    optimize rotation matrix (better conditioning)
   TURBO    =      0    0=normal 1=particle mesh
   IRESTART =      0    0=no restart 2=restart with 2 vectors
   NREBOOT  =      0    no. of reboots
   NMIN     =      0    reboot dimension
   EREF     =   0.00    reference energy to select bands
   IMIX   =      4    mixing-type and parameters
     AMIX     =   0.40;   BMIX     =  1.00
     AMIX_MAG =   1.60;   BMIX_MAG =  1.00
     AMIN     =   0.10
     WC   =   100.;   INIMIX=   1;  MIXPRE=   1;  MAXMIX= -45

 Intra band minimization:
   WEIMIN = 0.0000     energy-eigenvalue tresh-hold
   EBREAK =  0.39E-08  absolut break condition
   DEPER  =   0.30     relativ break condition  

   TIME   =   0.40     timestep for ELM

  volume/ion in A,a.u.               =      15.95       107.66
  Fermi-wavevector in a.u.,A,eV,Ry     =   1.321965  2.498152 23.777441  1.747593
  Thomas-Fermi vector in A             =   2.451681
 
 Write flags
   LWAVE        =      F    write WAVECAR
   LDOWNSAMPLE  =      F    k-point downsampling of WAVECAR
   LCHARG       =      F    write CHGCAR
   LVTOT        =      F    write LOCPOT, total local potential
   LVHAR        =      F    write LOCPOT, Hartree potential only
   LELF         =      F    write electronic localiz. function (ELF)
   LORBIT       =     11    0 simple, 1 ext, 2 COOP (PROOUT), +10 PAW based schemes


 Dipole corrections
   LMONO  =      F    monopole corrections only (constant potential shift)
   LDIPOL =      F    correct potential (dipole corrections)
   IDIPOL =      0    1-x, 2-y, 3-z, 4-all directions 
   EPSILON=  1.0000000 bulk dielectric constant

 Exchange correlation treatment:
   GGA     =    --    GGA type
   LEXCH   =     8    internal setting for exchange type
   VOSKOWN=      0    Vosko Wilk Nusair interpolation
   LHFCALC =     F    Hartree Fock is set to
   LHFONE  =     F    Hartree Fock one center treatment
   AEXX    =    0.0000 exact exchange contribution

 Linear response parameters
   LEPSILON=     F    determine dielectric tensor
   LRPA    =     F    only Hartree local field effects (RPA)
   LNABLA  =     F    use nabla operator in PAW spheres
   LVEL    =     F    velocity operator in full k-point grid
   LINTERFAST=   F  fast interpolation
   KINTER  =     0    interpolate to denser k-point grid
   CSHIFT  =0.1000    complex shift for real part using Kramers Kronig
   OMEGAMAX=  -1.0    maximum frequency
   DEG_THRESHOLD= 0.2000000E-02 threshold for treating states as degnerate
   RTIME   =   -0.100 relaxation time in fs
  (WPLASMAI=    0.000 imaginary part of plasma frequency in eV, 0.658/RTIME)
   DFIELD  = 0.0000000 0.0000000 0.0000000 field for delta impulse in time
 
 Orbital magnetization related:
   ORBITALMAG=     F  switch on orbital magnetization
   LCHIMAG   =     F  perturbation theory with respect to B field
   DQ        =  0.001000  dq finite difference perturbation B field
   LLRAUG    =     F  two centre corrections for induced B field



--------------------------------------------------------------------------------------------------------


 Static calculation
 charge density and potential will be updated during run
 spin polarized calculation
 Variant of blocked Davidson
 Davidson routine will perform the subspace rotation
 perform sub-space diagonalisation
    after iterative eigenvector-optimisation
 modified Broyden-mixing scheme, WC =      100.0
 initial mixing is a Kerker type mixing with AMIX =  0.4000 and BMIX =      1.0000
 Hartree-type preconditioning will be used
 using additional bands           22
 reciprocal scheme for non local part
 use partial core corrections
 calculate Harris-corrections to forces 
   (improved forces if not selfconsistent)
 use gradient corrections 
 use of overlap-Matrix (Vanderbilt PP)
 Gauss-broadening in eV      SIGMA  =   0.05


--------------------------------------------------------------------------------------------------------


  energy-cutoff  :      520.00
  volume of cell :      159.53
      direct lattice vectors                 reciprocal lattice vectors
     3.574043013  0.000000006 -0.000000042     0.279795178 -0.000000001  0.000000003
     0.000000007  3.574042987 -0.000000007    -0.000000001  0.279795180  0.000000001
    -0.000000145 -0.000000025 12.488892887     0.000000001  0.000000000  0.080071149

  length of vectors
     3.574043013  3.574042987 12.488892887     0.279795178  0.279795180  0.080071149


 
 k-points in units of 2pi/SCALE and weight: Kpoints                                 
   0.00000000  0.00000000  0.00000000       0.004
   0.03108835 -0.00000000  0.00000000       0.008
  -0.00000000  0.03108835  0.00000000       0.008
   0.06217671 -0.00000000  0.00000000       0.008
  -0.00000000  0.06217671  0.00000000       0.008
   0.09326506 -0.00000000  0.00000000       0.008
  -0.00000000  0.09326506  0.00000000       0.008
   0.12435341 -0.00000000  0.00000000       0.008
  -0.00000000  0.12435341  0.00000000       0.008
   0.03108835  0.03108835  0.00000000       0.008
  -0.03108835  0.03108835 -0.00000000       0.008
   0.06217671  0.03108835  0.00000000       0.008
  -0.03108835  0.06217671 -0.00000000       0.008
  -0.06217671  0.03108835 -0.00000000       0.008
   0.03108835  0.06217671  0.00000000       0.008
   0.09326506  0.03108835  0.00000000       0.008
  -0.03108835  0.09326506 -0.00000000       0.008
  -0.09326506  0.03108835 -0.00000000       0.008
   0.03108835  0.09326506  0.00000000       0.008
   0.12435341  0.03108835  0.00000000       0.008
  -0.03108835  0.12435341 -0.00000000       0.008
  -0.12435341  0.03108835 -0.00000000       0.008
   0.03108835  0.12435341  0.00000000       0.008
   0.06217671  0.06217671  0.00000000       0.008
  -0.06217671  0.06217671 -0.00000000       0.008
   0.09326506  0.06217671  0.00000000       0.008
  -0.06217671  0.09326506 -0.00000000       0.008
  -0.09326506  0.06217671 -0.00000000       0.008
   0.06217671  0.09326506  0.00000000       0.008
   0.12435341  0.06217671  0.00000000       0.008
  -0.06217671  0.12435341 -0.00000000       0.008
  -0.12435341  0.06217671 -0.00000000       0.008
   0.06217671  0.12435341  0.00000000       0.008
   0.09326506  0.09326506  0.00000000       0.008
  -0.09326506  0.09326506 -0.00000000       0.008
   0.12435341  0.09326506  0.00000000       0.008
  -0.09326506  0.12435341 -0.00000000       0.008
  -0.12435341  0.09326506 -0.00000000       0.008
   0.09326506  0.12435341  0.00000000       0.008
   0.12435341  0.12435341  0.00000000       0.008
  -0.12435341  0.12435341 -0.00000000       0.008
   0.00000000  0.00000000  0.02669038       0.008
   0.03108835 -0.00000000  0.02669038       0.008
   0.00000000  0.03108835  0.02669038       0.008
  -0.03108835  0.00000000  0.02669038       0.008
   0.00000000 -0.03108835  0.02669038       0.008
   0.06217671 -0.00000000  0.02669038       0.008
   0.00000000  0.06217671  0.02669038       0.008
  -0.06217671  0.00000000  0.02669038       0.008
   0.00000000 -0.06217671  0.02669038       0.008
   0.09326506 -0.00000000  0.02669038       0.008
   0.00000000  0.09326506  0.02669038       0.008
  -0.09326506  0.00000000  0.02669038       0.008
   0.00000000 -0.09326506  0.02669038       0.008
   0.12435341 -0.00000000  0.02669038       0.008
   0.00000000  0.12435341  0.02669038       0.008
  -0.12435341  0.00000000  0.02669038       0.008
   0.00000000 -0.12435341  0.02669038       0.008
   0.03108835  0.03108835  0.02669038       0.008
  -0.03108835  0.03108835  0.02669038       0.008
  -0.03108835 -0.03108835  0.02669038       0.008
   0.03108835 -0.03108835  0.02669038       0.008
   0.06217671  0.03108835  0.02669038       0.008
  -0.03108835  0.06217671  0.02669038       0.008
  -0.06217671 -0.03108835  0.02669038       0.008
   0.03108835 -0.06217671  0.02669038       0.008
  -0.06217671  0.03108835 -0.02669038       0.008
   0.03108835  0.06217671 -0.02669038       0.008
   0.06217671 -0.03108835 -0.02669038       0.008
  -0.03108835 -0.06217671 -0.02669038       0.008
   0.09326506  0.03108835  0.02669038       0.008
  -0.03108835  0.09326506  0.02669038       0.008
  -0.09326506 -0.03108835  0.02669038       0.008
   0.03108835 -0.09326506  0.02669038       0.008
  -0.09326506  0.03108835 -0.02669038       0.008
   0.03108835  0.09326506 -0.02669038       0.008
   0.09326506 -0.03108835 -0.02669038       0.008
  -0.03108835 -0.09326506 -0.02669038       0.008
   0.12435341  0.03108835  0.02669038       0.008
  -0.03108835  0.12435341  0.02669038       0.008
  -0.12435341 -0.03108835  0.02669038       0.008
   0.03108835 -0.12435341  0.02669038       0.008
  -0.12435341  0.03108835 -0.02669038       0.008
   0.03108835  0.12435341 -0.02669038       0.008
   0.12435341 -0.03108835 -0.02669038       0.008
  -0.03108835 -0.12435341 -0.02669038       0.008
   0.06217671  0.06217671  0.02669038       0.008
  -0.06217671  0.06217671  0.02669038       0.008
  -0.06217671 -0.06217671  0.02669038       0.008
   0.06217671 -0.06217671  0.02669038       0.008
   0.09326506  0.06217671  0.02669038       0.008
  -0.06217671  0.09326506  0.02669038       0.008
  -0.09326506 -0.06217671  0.02669038       0.008
   0.06217671 -0.09326506  0.02669038       0.008
  -0.09326506  0.06217671 -0.02669038       0.008
   0.06217671  0.09326506 -0.02669038       0.008
   0.09326506 -0.06217671 -0.02669038       0.008
  -0.06217671 -0.09326506 -0.02669038       0.008
   0.12435341  0.06217671  0.02669038       0.008
  -0.06217671  0.12435341  0.02669038       0.008
  -0.12435341 -0.06217671  0.02669038       0.008
   0.06217671 -0.12435341  0.02669038       0.008
  -0.12435341  0.06217671 -0.02669038       0.008
   0.06217671  0.12435341 -0.02669038       0.008
   0.12435341 -0.06217671 -0.02669038       0.008
  -0.06217671 -0.12435341 -0.02669038       0.008
   0.09326506  0.09326506  0.02669038       0.008
  -0.09326506  0.09326506  0.02669038       0.008
  -0.09326506 -0.09326506  0.02669038       0.008
   0.09326506 -0.09326506  0.02669038       0.008
   0.12435341  0.09326506  0.02669038       0.008
  -0.09326506  0.12435341  0.02669038       0.008
  -0.12435341 -0.09326506  0.02669038       0.008
   0.09326506 -0.12435341  0.02669038       0.008
  -0.12435341  0.09326506 -0.02669038       0.008
   0.09326506  0.12435341 -0.02669038       0.008
   0.12435341 -0.09326506 -0.02669038       0.008
  -0.09326506 -0.12435341 -0.02669038       0.008
   0.12435341  0.12435341  0.02669038       0.008
  -0.12435341  0.12435341  0.02669038       0.008
  -0.12435341 -0.12435341  0.02669038       0.008
   0.12435341 -0.12435341  0.02669038       0.008
 
 k-points in reciprocal lattice and weights: Kpoints                                 
   0.00000000  0.00000000  0.00000000       0.004
   0.11111111  0.00000000 -0.00000000       0.008
  -0.00000000  0.11111111  0.00000000       0.008
   0.22222222  0.00000000 -0.00000000       0.008
  -0.00000000  0.22222222  0.00000000       0.008
   0.33333333  0.00000000  0.00000000       0.008
  -0.00000000  0.33333333  0.00000000       0.008
   0.44444444  0.00000000  0.00000000       0.008
  -0.00000000  0.44444444  0.00000000       0.008
   0.11111111  0.11111111 -0.00000000       0.008
  -0.11111111  0.11111111  0.00000000       0.008
   0.22222222  0.11111111 -0.00000000       0.008
  -0.11111111  0.22222222  0.00000000       0.008
  -0.22222222  0.11111111  0.00000000       0.008
   0.11111111  0.22222222 -0.00000000       0.008
   0.33333333  0.11111111  0.00000000       0.008
  -0.11111111  0.33333333  0.00000000       0.008
  -0.33333333  0.11111111 -0.00000000       0.008
   0.11111111  0.33333333 -0.00000000       0.008
   0.44444444  0.11111111  0.00000000       0.008
  -0.11111111  0.44444444  0.00000000       0.008
  -0.44444444  0.11111111 -0.00000000       0.008
   0.11111111  0.44444444 -0.00000000       0.008
   0.22222222  0.22222222 -0.00000000       0.008
  -0.22222222  0.22222222  0.00000000       0.008
   0.33333333  0.22222222  0.00000000       0.008
  -0.22222222  0.33333333  0.00000000       0.008
  -0.33333333  0.22222222 -0.00000000       0.008
   0.22222222  0.33333333 -0.00000000       0.008
   0.44444444  0.22222222  0.00000000       0.008
  -0.22222222  0.44444444  0.00000000       0.008
  -0.44444444  0.22222222 -0.00000000       0.008
   0.22222222  0.44444444 -0.00000000       0.008
   0.33333333  0.33333333  0.00000000       0.008
  -0.33333333  0.33333333 -0.00000000       0.008
   0.44444444  0.33333333  0.00000000       0.008
  -0.33333333  0.44444444 -0.00000000       0.008
  -0.44444444  0.33333333 -0.00000000       0.008
   0.33333333  0.44444444  0.00000000       0.008
   0.44444444  0.44444444  0.00000000       0.008
  -0.44444444  0.44444444  0.00000000       0.008
   0.00000000 -0.00000000  0.33333333       0.008
   0.11111111  0.00000000  0.33333333       0.008
   0.00000000  0.11111111  0.33333333       0.008
  -0.11111111 -0.00000000  0.33333333       0.008
   0.00000000 -0.11111111  0.33333333       0.008
   0.22222222  0.00000000  0.33333333       0.008
  -0.00000000  0.22222222  0.33333333       0.008
  -0.22222222 -0.00000000  0.33333333       0.008
   0.00000000 -0.22222222  0.33333333       0.008
   0.33333333  0.00000000  0.33333333       0.008
  -0.00000000  0.33333333  0.33333333       0.008
  -0.33333333 -0.00000000  0.33333333       0.008
   0.00000000 -0.33333333  0.33333333       0.008
   0.44444444  0.00000000  0.33333333       0.008
  -0.00000000  0.44444444  0.33333333       0.008
  -0.44444444 -0.00000000  0.33333333       0.008
   0.00000000 -0.44444444  0.33333333       0.008
   0.11111111  0.11111111  0.33333333       0.008
  -0.11111111  0.11111111  0.33333333       0.008
  -0.11111111 -0.11111111  0.33333333       0.008
   0.11111111 -0.11111111  0.33333333       0.008
   0.22222222  0.11111111  0.33333333       0.008
  -0.11111111  0.22222222  0.33333333       0.008
  -0.22222222 -0.11111111  0.33333333       0.008
   0.11111111 -0.22222222  0.33333333       0.008
  -0.22222222  0.11111111 -0.33333333       0.008
   0.11111111  0.22222222 -0.33333333       0.008
   0.22222222 -0.11111111 -0.33333333       0.008
  -0.11111111 -0.22222222 -0.33333333       0.008
   0.33333333  0.11111111  0.33333333       0.008
  -0.11111111  0.33333333  0.33333333       0.008
  -0.33333333 -0.11111111  0.33333333       0.008
   0.11111111 -0.33333333  0.33333333       0.008
  -0.33333333  0.11111111 -0.33333333       0.008
   0.11111111  0.33333333 -0.33333333       0.008
   0.33333333 -0.11111111 -0.33333333       0.008
  -0.11111111 -0.33333333 -0.33333333       0.008
   0.44444444  0.11111111  0.33333333       0.008
  -0.11111111  0.44444444  0.33333333       0.008
  -0.44444444 -0.11111111  0.33333333       0.008
   0.11111111 -0.44444444  0.33333333       0.008
  -0.44444444  0.11111111 -0.33333333       0.008
   0.11111111  0.44444444 -0.33333333       0.008
   0.44444444 -0.11111111 -0.33333333       0.008
  -0.11111111 -0.44444444 -0.33333333       0.008
   0.22222222  0.22222222  0.33333333       0.008
  -0.22222222  0.22222222  0.33333333       0.008
  -0.22222222 -0.22222222  0.33333333       0.008
   0.22222222 -0.22222222  0.33333333       0.008
   0.33333333  0.22222222  0.33333333       0.008
  -0.22222222  0.33333333  0.33333333       0.008
  -0.33333333 -0.22222222  0.33333333       0.008
   0.22222222 -0.33333333  0.33333333       0.008
  -0.33333333  0.22222222 -0.33333333       0.008
   0.22222222  0.33333333 -0.33333333       0.008
   0.33333333 -0.22222222 -0.33333333       0.008
  -0.22222222 -0.33333333 -0.33333333       0.008
   0.44444444  0.22222222  0.33333333       0.008
  -0.22222222  0.44444444  0.33333333       0.008
  -0.44444444 -0.22222222  0.33333333       0.008
   0.22222222 -0.44444444  0.33333333       0.008
  -0.44444444  0.22222222 -0.33333333       0.008
   0.22222222  0.44444444 -0.33333333       0.008
   0.44444444 -0.22222222 -0.33333333       0.008
  -0.22222222 -0.44444444 -0.33333333       0.008
   0.33333333  0.33333333  0.33333333       0.008
  -0.33333333  0.33333333  0.33333333       0.008
  -0.33333333 -0.33333333  0.33333333       0.008
   0.33333333 -0.33333333  0.33333333       0.008
   0.44444444  0.33333333  0.33333333       0.008
  -0.33333333  0.44444444  0.33333333       0.008
  -0.44444444 -0.33333333  0.33333333       0.008
   0.33333333 -0.44444444  0.33333333       0.008
  -0.44444444  0.33333333 -0.33333333       0.008
   0.33333333  0.44444444 -0.33333333       0.008
   0.44444444 -0.33333333 -0.33333333       0.008
  -0.33333333 -0.44444444 -0.33333333       0.008
   0.44444444  0.44444444  0.33333333       0.008
  -0.44444444  0.44444444  0.33333333       0.008
  -0.44444444 -0.44444444  0.33333333       0.008
   0.44444444 -0.44444444  0.33333333       0.008
 
 position of ions in fractional coordinates (direct lattice) 
   0.99999998  0.00000000  0.00000014
   0.49999999  0.50000000  0.49999991
   0.00000013  1.00000000  0.33756767
   0.00000012  0.00000001  0.66243234
   0.50000015  0.50000000  0.83756765
   0.50000011  0.49999999  0.16243235
   0.99923004  0.00000002  0.14500554
   0.99999991  0.00000000  0.85422446
   0.49999989  0.50000000  0.64577551
   0.49999987  0.49999998  0.35422463
 
 position of ions in cartesian coordinates  (Angst):
   3.57404296  0.00000001  0.00000175
   1.78702139  1.78702148  6.24444526
   0.00000041  3.57404298  4.21584647
   0.00000033  0.00000003  8.27304648
   1.78702191  1.78702149 10.46029264
   1.78702188  1.78702144  2.02860018
   3.57129114  0.00000007  1.81095859
   3.57404255 -0.00000001 10.66831772
   1.78702104  1.78702148  8.06502116
   1.78702100  1.78702140  4.42387343
 


--------------------------------------------------------------------------------------------------------


 k-point   1 :   0.0000 0.0000 0.0000  plane waves:    4327
 k-point   2 :   0.1111 0.0000-0.0000  plane waves:    4311
 k-point   3 :  -0.0000 0.1111 0.0000  plane waves:    4311
 k-point   4 :   0.2222 0.0000-0.0000  plane waves:    4319
 k-point   5 :  -0.0000 0.2222 0.0000  plane waves:    4319
 k-point   6 :   0.3333 0.0000 0.0000  plane waves:    4299
 k-point   7 :  -0.0000 0.3333 0.0000  plane waves:    4299
 k-point   8 :   0.4444 0.0000 0.0000  plane waves:    4290
 k-point   9 :  -0.0000 0.4444 0.0000  plane waves:    4290
 k-point  10 :   0.1111 0.1111-0.0000  plane waves:    4317
 k-point  11 :  -0.1111 0.1111 0.0000  plane waves:    4317
 k-point  12 :   0.2222 0.1111-0.0000  plane waves:    4303
 k-point  13 :  -0.1111 0.2222 0.0000  plane waves:    4303
 k-point  14 :  -0.2222 0.1111 0.0000  plane waves:    4303
 k-point  15 :   0.1111 0.2222-0.0000  plane waves:    4303
 k-point  16 :   0.3333 0.1111 0.0000  plane waves:    4293
 k-point  17 :  -0.1111 0.3333 0.0000  plane waves:    4293
 k-point  18 :  -0.3333 0.1111-0.0000  plane waves:    4293
 k-point  19 :   0.1111 0.3333-0.0000  plane waves:    4293
 k-point  20 :   0.4444 0.1111 0.0000  plane waves:    4280
 k-point  21 :  -0.1111 0.4444 0.0000  plane waves:    4280
 k-point  22 :  -0.4444 0.1111-0.0000  plane waves:    4280
 k-point  23 :   0.1111 0.4444-0.0000  plane waves:    4280
 k-point  24 :   0.2222 0.2222-0.0000  plane waves:    4297
 k-point  25 :  -0.2222 0.2222 0.0000  plane waves:    4297
 k-point  26 :   0.3333 0.2222 0.0000  plane waves:    4287
 k-point  27 :  -0.2222 0.3333 0.0000  plane waves:    4287
 k-point  28 :  -0.3333 0.2222-0.0000  plane waves:    4287
 k-point  29 :   0.2222 0.3333-0.0000  plane waves:    4287
 k-point  30 :   0.4444 0.2222 0.0000  plane waves:    4306
 k-point  31 :  -0.2222 0.4444 0.0000  plane waves:    4306
 k-point  32 :  -0.4444 0.2222-0.0000  plane waves:    4306
 k-point  33 :   0.2222 0.4444-0.0000  plane waves:    4306
 k-point  34 :   0.3333 0.3333 0.0000  plane waves:    4280
 k-point  35 :  -0.3333 0.3333-0.0000  plane waves:    4280
 k-point  36 :   0.4444 0.3333 0.0000  plane waves:    4285
 k-point  37 :  -0.3333 0.4444-0.0000  plane waves:    4285
 k-point  38 :  -0.4444 0.3333-0.0000  plane waves:    4285
 k-point  39 :   0.3333 0.4444 0.0000  plane waves:    4285
 k-point  40 :   0.4444 0.4444 0.0000  plane waves:    4298
 k-point  41 :  -0.4444 0.4444 0.0000  plane waves:    4298
 k-point  42 :   0.0000-0.0000 0.3333  plane waves:    4298
 k-point  43 :   0.1111 0.0000 0.3333  plane waves:    4317
 k-point  44 :   0.0000 0.1111 0.3333  plane waves:    4317
 k-point  45 :  -0.1111-0.0000 0.3333  plane waves:    4317
 k-point  46 :   0.0000-0.1111 0.3333  plane waves:    4317
 k-point  47 :   0.2222 0.0000 0.3333  plane waves:    4319
 k-point  48 :  -0.0000 0.2222 0.3333  plane waves:    4319
 k-point  49 :  -0.2222-0.0000 0.3333  plane waves:    4319
 k-point  50 :   0.0000-0.2222 0.3333  plane waves:    4319
 k-point  51 :   0.3333 0.0000 0.3333  plane waves:    4290
 k-point  52 :  -0.0000 0.3333 0.3333  plane waves:    4290
 k-point  53 :  -0.3333-0.0000 0.3333  plane waves:    4290
 k-point  54 :   0.0000-0.3333 0.3333  plane waves:    4290
 k-point  55 :   0.4444 0.0000 0.3333  plane waves:    4283
 k-point  56 :  -0.0000 0.4444 0.3333  plane waves:    4283
 k-point  57 :  -0.4444-0.0000 0.3333  plane waves:    4283
 k-point  58 :   0.0000-0.4444 0.3333  plane waves:    4283
 k-point  59 :   0.1111 0.1111 0.3333  plane waves:    4316
 k-point  60 :  -0.1111 0.1111 0.3333  plane waves:    4316
 k-point  61 :  -0.1111-0.1111 0.3333  plane waves:    4316
 k-point  62 :   0.1111-0.1111 0.3333  plane waves:    4316
 k-point  63 :   0.2222 0.1111 0.3333  plane waves:    4317
 k-point  64 :  -0.1111 0.2222 0.3333  plane waves:    4317
 k-point  65 :  -0.2222-0.1111 0.3333  plane waves:    4317
 k-point  66 :   0.1111-0.2222 0.3333  plane waves:    4317
 k-point  67 :  -0.2222 0.1111-0.3333  plane waves:    4317
 k-point  68 :   0.1111 0.2222-0.3333  plane waves:    4317
 k-point  69 :   0.2222-0.1111-0.3333  plane waves:    4317
 k-point  70 :  -0.1111-0.2222-0.3333  plane waves:    4317
 k-point  71 :   0.3333 0.1111 0.3333  plane waves:    4293
 k-point  72 :  -0.1111 0.3333 0.3333  plane waves:    4293
 k-point  73 :  -0.3333-0.1111 0.3333  plane waves:    4293
 k-point  74 :   0.1111-0.3333 0.3333  plane waves:    4293
 k-point  75 :  -0.3333 0.1111-0.3333  plane waves:    4293
 k-point  76 :   0.1111 0.3333-0.3333  plane waves:    4293
 k-point  77 :   0.3333-0.1111-0.3333  plane waves:    4293
 k-point  78 :  -0.1111-0.3333-0.3333  plane waves:    4293
 k-point  79 :   0.4444 0.1111 0.3333  plane waves:    4286
 k-point  80 :  -0.1111 0.4444 0.3333  plane waves:    4286
 k-point  81 :  -0.4444-0.1111 0.3333  plane waves:    4286
 k-point  82 :   0.1111-0.4444 0.3333  plane waves:    4286
 k-point  83 :  -0.4444 0.1111-0.3333  plane waves:    4286
 k-point  84 :   0.1111 0.4444-0.3333  plane waves:    4286
 k-point  85 :   0.4444-0.1111-0.3333  plane waves:    4286
 k-point  86 :  -0.1111-0.4444-0.3333  plane waves:    4286
 k-point  87 :   0.2222 0.2222 0.3333  plane waves:    4301
 k-point  88 :  -0.2222 0.2222 0.3333  plane waves:    4301
 k-point  89 :  -0.2222-0.2222 0.3333  plane waves:    4301
 k-point  90 :   0.2222-0.2222 0.3333  plane waves:    4301
 k-point  91 :   0.3333 0.2222 0.3333  plane waves:    4282
 k-point  92 :  -0.2222 0.3333 0.3333  plane waves:    4282
 k-point  93 :  -0.3333-0.2222 0.3333  plane waves:    4282
 k-point  94 :   0.2222-0.3333 0.3333  plane waves:    4282
 k-point  95 :  -0.3333 0.2222-0.3333  plane waves:    4282
 k-point  96 :   0.2222 0.3333-0.3333  plane waves:    4282
 k-point  97 :   0.3333-0.2222-0.3333  plane waves:    4282
 k-point  98 :  -0.2222-0.3333-0.3333  plane waves:    4282
 k-point  99 :   0.4444 0.2222 0.3333  plane waves:    4278
 k-point 100 :  -0.2222 0.4444 0.3333  plane waves:    4278
 k-point 101 :  -0.4444-0.2222 0.3333  plane waves:    4278
 k-point 102 :   0.2222-0.4444 0.3333  plane waves:    4278
 k-point 103 :  -0.4444 0.2222-0.3333  plane waves:    4278
 k-point 104 :   0.2222 0.4444-0.3333  plane waves:    4278
 k-point 105 :   0.4444-0.2222-0.3333  plane waves:    4278
 k-point 106 :  -0.2222-0.4444-0.3333  plane waves:    4278
 k-point 107 :   0.3333 0.3333 0.3333  plane waves:    4284
 k-point 108 :  -0.3333 0.3333 0.3333  plane waves:    4284
 k-point 109 :  -0.3333-0.3333 0.3333  plane waves:    4284
 k-point 110 :   0.3333-0.3333 0.3333  plane waves:    4284
 k-point 111 :   0.4444 0.3333 0.3333  plane waves:    4284
 k-point 112 :  -0.3333 0.4444 0.3333  plane waves:    4284
 k-point 113 :  -0.4444-0.3333 0.3333  plane waves:    4284
 k-point 114 :   0.3333-0.4444 0.3333  plane waves:    4284
 k-point 115 :  -0.4444 0.3333-0.3333  plane waves:    4284
 k-point 116 :   0.3333 0.4444-0.3333  plane waves:    4284
 k-point 117 :   0.4444-0.3333-0.3333  plane waves:    4284
 k-point 118 :  -0.3333-0.4444-0.3333  plane waves:    4284
 k-point 119 :   0.4444 0.4444 0.3333  plane waves:    4304
 k-point 120 :  -0.4444 0.4444 0.3333  plane waves:    4304
 k-point 121 :  -0.4444-0.4444 0.3333  plane waves:    4304
 k-point 122 :   0.4444-0.4444 0.3333  plane waves:    4304

 maximum and minimum number of plane-waves per node :      1095     1056

 maximum number of plane-waves:      4327
 maximum index in each direction: 
   IXMAX=    7   IYMAX=    7   IZMAX=   23
   IXMIN=   -7   IYMIN=   -7   IZMIN=  -23


 parallel 3D FFT for wavefunctions:
    minimum data exchange during FFTs selected (reduces bandwidth)
 parallel 3D FFT for charge:
    minimum data exchange during FFTs selected (reduces bandwidth)


 total amount of memory used by VASP MPI-rank0   111221. kBytes
=======================================================================

   base      :      30000. kBytes
   nonl-proj :      58361. kBytes
   fftplans  :        935. kBytes
   grid      :       3843. kBytes
   one-center:         93. kBytes
   wavefun   :      17989. kBytes
 
     INWAV:  cpu time    0.0001: real time    0.0004
 Broyden mixing: mesh for mixing (old mesh)
   NGX = 13   NGY = 13   NGZ = 47
  (NGX  = 56   NGY  = 56   NGZ  =192)
  gives a total of   7943 points

 initial charge density was supplied:
 charge density of overlapping atoms calculated
 number of electron      84.0000000 magnetization       0.6000000
 keeping initial charge density in first step


--------------------------------------------------------------------------------------------------------


 Maximum index for augmentation-charges          942 (set IRDMAX)


--------------------------------------------------------------------------------------------------------


 First call to EWALD:  gamma=   0.327
 Maximum number of real-space cells 4x 4x 1
 Maximum number of reciprocal cells 2x 2x 6

    FEWALD:  cpu time    0.0016: real time    0.0018


--------------------------------------- Iteration      1(   1)  ---------------------------------------


    POTLOK:  cpu time    0.0469: real time    0.0620
    SETDIJ:  cpu time    0.9743: real time    0.9759
     EDDAV:  cpu time   11.1711: real time   11.2001
       DOS:  cpu time    0.0048: real time    0.0050
    --------------------------------------------
      LOOP:  cpu time   12.1970: real time   12.2430

 eigenvalue-minimisations  : 31232
 total energy-change (2. order) : 0.7502158E+03  (-0.4179493E+04)
 number of electron      84.0000000 magnetization       0.6000000
 augmentation part       84.0000000 magnetization       0.6000000

 Free energy of the ion-electron system (eV)
  ---------------------------------------------------
  alpha Z        PSCENC =       451.66503955
  Ewald energy   TEWEN  =     -5989.74613374
  -Hartree energ DENC   =     -2274.60482768
  -exchange      EXHF   =         0.00000000
  -V(xc)+E(xc)   XCENC  =       422.62318361
  PAW double counting   =      6649.44116713    -7029.34659928
  entropy T*S    EENTRO =        -0.00419962
  eigenvalues    EBANDS =       -59.97396914
  atomic energy  EATOM  =      8580.16218116
  Solvation  Ediel_sol  =         0.00000000
  ---------------------------------------------------
  free energy    TOTEN  =       750.21584200 eV

  energy without entropy =      750.22004162  energy(sigma->0) =      750.21794181


--------------------------------------------------------------------------------------------------------




--------------------------------------- Iteration      1(   2)  ---------------------------------------


     EDDAV:  cpu time   10.4216: real time   10.4712
       DOS:  cpu time    0.0017: real time    0.0017
    --------------------------------------------
      LOOP:  cpu time   10.4233: real time   10.4729

 eigenvalue-minimisations  : 32528
 total energy-change (2. order) :-0.8048164E+03  (-0.7682153E+03)
 number of electron      84.0000000 magnetization       0.6000000
 augmentation part       84.0000000 magnetization       0.6000000

 Free energy of the ion-electron system (eV)
  ---------------------------------------------------
  alpha Z        PSCENC =       451.66503955
  Ewald energy   TEWEN  =     -5989.74613374
  -Hartree energ DENC   =     -2274.60482768
  -exchange      EXHF   =         0.00000000
  -V(xc)+E(xc)   XCENC  =       422.62318361
  PAW double counting   =      6649.44116713    -7029.34659928
  entropy T*S    EENTRO =        -0.00000000
  eigenvalues    EBANDS =      -864.79453065
  atomic energy  EATOM  =      8580.16218116
  Solvation  Ediel_sol  =         0.00000000
  ---------------------------------------------------
  free energy    TOTEN  =       -54.60051989 eV

  energy without entropy =      -54.60051989  energy(sigma->0) =      -54.60051989


--------------------------------------------------------------------------------------------------------




--------------------------------------- Iteration      1(   3)  ---------------------------------------


     EDDAV:  cpu time   15.0212: real time   15.0730
       DOS:  cpu time    0.0019: real time    0.0018
    --------------------------------------------
      LOOP:  cpu time   15.0230: real time   15.0749

 eigenvalue-minimisations  : 46512
 total energy-change (2. order) :-0.8421794E+02  (-0.8298988E+02)
 number of electron      84.0000000 magnetization       0.6000000
 augmentation part       84.0000000 magnetization       0.6000000

 Free energy of the ion-electron system (eV)
  ---------------------------------------------------
  alpha Z        PSCENC =       451.66503955
  Ewald energy   TEWEN  =     -5989.74613374
  -Hartree energ DENC   =     -2274.60482768
  -exchange      EXHF   =         0.00000000
  -V(xc)+E(xc)   XCENC  =       422.62318361
  PAW double counting   =      6649.44116713    -7029.34659928
  entropy T*S    EENTRO =        -0.00000000
  eigenvalues    EBANDS =      -949.01247416
  atomic energy  EATOM  =      8580.16218116
  Solvation  Ediel_sol  =         0.00000000
  ---------------------------------------------------
  free energy    TOTEN  =      -138.81846340 eV

  energy without entropy =     -138.81846340  energy(sigma->0) =     -138.81846340


--------------------------------------------------------------------------------------------------------




--------------------------------------- Iteration      1(   4)  ---------------------------------------


     EDDAV:  cpu time   16.2669: real time   16.3049
       DOS:  cpu time    0.0020: real time    0.0020
    --------------------------------------------
      LOOP:  cpu time   16.2689: real time   16.3069

 eigenvalue-minimisations  : 50976
 total energy-change (2. order) :-0.4692675E+01  (-0.4662311E+01)
 number of electron      84.0000000 magnetization       0.6000000
 augmentation part       84.0000000 magnetization       0.6000000

 Free energy of the ion-electron system (eV)
  ---------------------------------------------------
  alpha Z        PSCENC =       451.66503955
  Ewald energy   TEWEN  =     -5989.74613374
  -Hartree energ DENC   =     -2274.60482768
  -exchange      EXHF   =         0.00000000
  -V(xc)+E(xc)   XCENC  =       422.62318361
  PAW double counting   =      6649.44116713    -7029.34659928
  entropy T*S    EENTRO =        -0.00000000
  eigenvalues    EBANDS =      -953.70514919
  atomic energy  EATOM  =      8580.16218116
  Solvation  Ediel_sol  =         0.00000000
  ---------------------------------------------------
  free energy    TOTEN  =      -143.51113843 eV

  energy without entropy =     -143.51113843  energy(sigma->0) =     -143.51113843


--------------------------------------------------------------------------------------------------------




--------------------------------------- Iteration      1(   5)  ---------------------------------------


     EDDAV:  cpu time   13.5724: real time   13.6263
       DOS:  cpu time    0.0019: real time    0.0019
    CHARGE:  cpu time    1.0688: real time    1.0708
    MIXING:  cpu time    0.0019: real time    0.0028
    --------------------------------------------
      LOOP:  cpu time   14.6450: real time   14.7018

 eigenvalue-minimisations  : 40944
 total energy-change (2. order) :-0.1051267E+00  (-0.1051165E+00)
 number of electron      83.9999972 magnetization       0.4060930
 augmentation part       26.6350264 magnetization       0.4296051

 Broyden mixing:
  rms(total) = 0.20845E+01    rms(broyden)= 0.20841E+01
  rms(prec ) = 0.26717E+01
  weight for this iteration     100.00

 Free energy of the ion-electron system (eV)
  ---------------------------------------------------
  alpha Z        PSCENC =       451.66503955
  Ewald energy   TEWEN  =     -5989.74613374
  -Hartree energ DENC   =     -2274.60482768
  -exchange      EXHF   =         0.00000000
  -V(xc)+E(xc)   XCENC  =       422.62318361
  PAW double counting   =      6649.44116713    -7029.34659928
  entropy T*S    EENTRO =        -0.00000000
  eigenvalues    EBANDS =      -953.81027592
  atomic energy  EATOM  =      8580.16218116
  Solvation  Ediel_sol  =         0.00000000
  ---------------------------------------------------
  free energy    TOTEN  =      -143.61626515 eV

  energy without entropy =     -143.61626515  energy(sigma->0) =     -143.61626515


--------------------------------------------------------------------------------------------------------




--------------------------------------- Iteration      1(   6)  ---------------------------------------


    POTLOK:  cpu time    0.0374: real time    0.0414
    SETDIJ:  cpu time    0.9806: real time    0.9813
     EDDAV:  cpu time   14.2610: real time   14.2890
       DOS:  cpu time    0.0020: real time    0.0020
    CHARGE:  cpu time    1.0511: real time    1.0529
    MIXING:  cpu time    0.0010: real time    0.0010
    --------------------------------------------
      LOOP:  cpu time   16.3329: real time   16.3676

 eigenvalue-minimisations  : 47824
 total energy-change (2. order) : 0.3296526E+02  (-0.4349937E+01)
 number of electron      83.9999970 magnetization       0.2806986
 augmentation part       27.5121846 magnetization       0.2779748

 Broyden mixing:
  rms(total) = 0.11556E+01    rms(broyden)= 0.11555E+01
  rms(prec ) = 0.11996E+01
  weight for this iteration     100.00

 eigenvalues of (default mixing * dielectric matrix)
  average eigenvalue GAMMA=   0.8922
  0.8922

 Free energy of the ion-electron system (eV)
  ---------------------------------------------------
  alpha Z        PSCENC =       451.66503955
  Ewald energy   TEWEN  =     -5989.74613374
  -Hartree energ DENC   =     -2270.51460153
  -exchange      EXHF   =         0.00000000
  -V(xc)+E(xc)   XCENC  =       432.67946058
  PAW double counting   =      6972.02900194    -7351.58383446
  entropy T*S    EENTRO =        -0.00000000
  eigenvalues    EBANDS =      -935.34212293
  atomic energy  EATOM  =      8580.16218116
  Solvation  Ediel_sol  =         0.00000000
  ---------------------------------------------------
  free energy    TOTEN  =      -110.65100943 eV

  energy without entropy =     -110.65100943  energy(sigma->0) =     -110.65100943


--------------------------------------------------------------------------------------------------------




--------------------------------------- Iteration      1(   7)  ---------------------------------------


    POTLOK:  cpu time    0.0365: real time    0.0757
    SETDIJ:  cpu time    0.9793: real time    0.9806
     EDDAV:  cpu time   13.7745: real time   13.8053
       DOS:  cpu time    0.0020: real time    0.0020
    CHARGE:  cpu time    1.0677: real time    1.0694
    MIXING:  cpu time    0.0006: real time    0.0006
    --------------------------------------------
      LOOP:  cpu time   15.8606: real time   15.9335

 eigenvalue-minimisations  : 41552
 total energy-change (2. order) :-0.1001368E+01  (-0.1428825E+01)
 number of electron      83.9999970 magnetization       0.1832758
 augmentation part       27.0981030 magnetization       0.1779623

 Broyden mixing:
  rms(total) = 0.68055E+00    rms(broyden)= 0.68047E+00
  rms(prec ) = 0.73132E+00
  weight for this iteration     100.00

 eigenvalues of (default mixing * dielectric matrix)
  average eigenvalue GAMMA=   1.1056
  1.1056  1.1056

 Free energy of the ion-electron system (eV)
  ---------------------------------------------------
  alpha Z        PSCENC =       451.66503955
  Ewald energy   TEWEN  =     -5989.74613374
  -Hartree energ DENC   =     -2287.28258918
  -exchange      EXHF   =         0.00000000
  -V(xc)+E(xc)   XCENC  =       432.86084784
  PAW double counting   =      7240.02536084    -7642.27437351
  entropy T*S    EENTRO =        -0.00000000
  eigenvalues    EBANDS =      -897.06271066
  atomic energy  EATOM  =      8580.16218116
  Solvation  Ediel_sol  =         0.00000000
  ---------------------------------------------------
  free energy    TOTEN  =      -111.65237771 eV

  energy without entropy =     -111.65237771  energy(sigma->0) =     -111.65237771


--------------------------------------------------------------------------------------------------------




--------------------------------------- Iteration      1(   8)  ---------------------------------------


    POTLOK:  cpu time    0.0363: real time    0.0367
    SETDIJ:  cpu time    0.9815: real time    0.9825
     EDDAV:  cpu time   15.5587: real time   15.5941
       DOS:  cpu time    0.0021: real time    0.0021
    CHARGE:  cpu time    1.0663: real time    1.0683
    MIXING:  cpu time    0.0005: real time    0.0005
    --------------------------------------------
      LOOP:  cpu time   17.6454: real time   17.6842

 eigenvalue-minimisations  : 48144
 total energy-change (2. order) : 0.1239754E-01  (-0.1889975E+00)
 number of electron      83.9999970 magnetization       0.0300076
 augmentation part       27.2151174 magnetization       0.0229367

 Broyden mixing:
  rms(total) = 0.38775E+00    rms(broyden)= 0.38773E+00
  rms(prec ) = 0.42336E+00
  weight for this iteration     100.00

 eigenvalues of (default mixing * dielectric matrix)
  average eigenvalue GAMMA=   1.4618
  2.6751  0.8551  0.8551

 Free energy of the ion-electron system (eV)
  ---------------------------------------------------
  alpha Z        PSCENC =       451.66503955
  Ewald energy   TEWEN  =     -5989.74613374
  -Hartree energ DENC   =     -2272.29208647
  -exchange      EXHF   =         0.00000000
  -V(xc)+E(xc)   XCENC  =       431.05989409
  PAW double counting   =      7452.50531724    -7861.39500632
  entropy T*S    EENTRO =        -0.00000000
  eigenvalues    EBANDS =      -903.59918567
  atomic energy  EATOM  =      8580.16218116
  Solvation  Ediel_sol  =         0.00000000
  ---------------------------------------------------
  free energy    TOTEN  =      -111.63998017 eV

  energy without entropy =     -111.63998017  energy(sigma->0) =     -111.63998017


--------------------------------------------------------------------------------------------------------




--------------------------------------- Iteration      1(   9)  ---------------------------------------


    POTLOK:  cpu time    0.0362: real time    0.0568
    SETDIJ:  cpu time    0.9759: real time    0.9771
     EDDAV:  cpu time   13.9813: real time   14.0126
       DOS:  cpu time    0.0021: real time    0.0021
    CHARGE:  cpu time    1.0670: real time    1.0686
    MIXING:  cpu time    0.0007: real time    0.0007
    --------------------------------------------
      LOOP:  cpu time   16.0632: real time   16.1179

 eigenvalue-minimisations  : 42544
 total energy-change (2. order) : 0.8378481E-01  (-0.4783914E-01)
 number of electron      83.9999971 magnetization       0.0350933
 augmentation part       27.1347307 magnetization       0.0293453

 Broyden mixing:
  rms(total) = 0.11967E+00    rms(broyden)= 0.11966E+00
  rms(prec ) = 0.13336E+00
  weight for this iteration     100.00

 eigenvalues of (default mixing * dielectric matrix)
  average eigenvalue GAMMA=   1.2655
  2.4724  0.9370  0.9370  0.7154

 Free energy of the ion-electron system (eV)
  ---------------------------------------------------
  alpha Z        PSCENC =       451.66503955
  Ewald energy   TEWEN  =     -5989.74613374
  -Hartree energ DENC   =     -2272.05213348
  -exchange      EXHF   =         0.00000000
  -V(xc)+E(xc)   XCENC  =       431.75320964
  PAW double counting   =      7779.64516152    -8203.00821187
  entropy T*S    EENTRO =        -0.00000000
  eigenvalues    EBANDS =      -889.97530815
  atomic energy  EATOM  =      8580.16218116
  Solvation  Ediel_sol  =         0.00000000
  ---------------------------------------------------
  free energy    TOTEN  =      -111.55619536 eV

  energy without entropy =     -111.55619536  energy(sigma->0) =     -111.55619536


--------------------------------------------------------------------------------------------------------




--------------------------------------- Iteration      1(  10)  ---------------------------------------


    POTLOK:  cpu time    0.0349: real time    0.0352
    SETDIJ:  cpu time    0.9623: real time    0.9635
     EDDAV:  cpu time   12.9127: real time   12.9397
       DOS:  cpu time    0.0019: real time    0.0019
    CHARGE:  cpu time    1.0526: real time    1.0544
    MIXING:  cpu time    0.0008: real time    0.0008
    --------------------------------------------
      LOOP:  cpu time   14.9653: real time   14.9956

 eigenvalue-minimisations  : 42752
 total energy-change (2. order) : 0.1616758E-01  (-0.1379788E-01)
 number of electron      83.9999970 magnetization       0.0177048
 augmentation part       27.1602116 magnetization       0.0140677

 Broyden mixing:
  rms(total) = 0.41281E-01    rms(broyden)= 0.41262E-01
  rms(prec ) = 0.47811E-01
  weight for this iteration     100.00

 eigenvalues of (default mixing * dielectric matrix)
  average eigenvalue GAMMA=   1.2236
  2.3791  1.1988  0.9017  0.9017  0.7365

 Free energy of the ion-electron system (eV)
  ---------------------------------------------------
  alpha Z        PSCENC =       451.66503955
  Ewald energy   TEWEN  =     -5989.74613374
  -Hartree energ DENC   =     -2272.31158331
  -exchange      EXHF   =         0.00000000
  -V(xc)+E(xc)   XCENC  =       431.66106161
  PAW double counting   =      7723.26292960    -8144.39151837
  entropy T*S    EENTRO =        -0.00000000
  eigenvalues    EBANDS =      -891.84200428
  atomic energy  EATOM  =      8580.16218116
  Solvation  Ediel_sol  =         0.00000000
  ---------------------------------------------------
  free energy    TOTEN  =      -111.54002778 eV

  energy without entropy =     -111.54002778  energy(sigma->0) =     -111.54002778


--------------------------------------------------------------------------------------------------------




--------------------------------------- Iteration      1(  11)  ---------------------------------------


    POTLOK:  cpu time    0.0362: real time    0.0670
    SETDIJ:  cpu time    0.9777: real time    0.9789
     EDDAV:  cpu time   13.4798: real time   13.5122
       DOS:  cpu time    0.0021: real time    0.0021
    CHARGE:  cpu time    1.0653: real time    1.0670
    MIXING:  cpu time    0.0006: real time    0.0006
    --------------------------------------------
      LOOP:  cpu time   15.5617: real time   15.6278

 eigenvalue-minimisations  : 40288
 total energy-change (2. order) :-0.4618629E-03  (-0.1716964E-02)
 number of electron      83.9999970 magnetization       0.0082633
 augmentation part       27.1657482 magnetization       0.0056399

 Broyden mixing:
  rms(total) = 0.14053E-01    rms(broyden)= 0.14053E-01
  rms(prec ) = 0.15627E-01
  weight for this iteration     100.00

 eigenvalues of (default mixing * dielectric matrix)
  average eigenvalue GAMMA=   1.3385
  2.4784  2.1919  0.9565  0.9565  0.7975  0.6504

 Free energy of the ion-electron system (eV)
  ---------------------------------------------------
  alpha Z        PSCENC =       451.66503955
  Ewald energy   TEWEN  =     -5989.74613374
  -Hartree energ DENC   =     -2271.03520171
  -exchange      EXHF   =         0.00000000
  -V(xc)+E(xc)   XCENC  =       431.52504758
  PAW double counting   =      7715.01311979    -8136.50872129
  entropy T*S    EENTRO =        -0.00000000
  eigenvalues    EBANDS =      -892.61582098
  atomic energy  EATOM  =      8580.16218116
  Solvation  Ediel_sol  =         0.00000000
  ---------------------------------------------------
[...]
     53       9.3283      0.00000
     54       9.3866      0.00000
     55      10.1904      0.00000
     56      10.2700      0.00000
     57      10.3570      0.00000
     58      10.4199      0.00000
     59      10.6585      0.00000
     60      10.7640      0.00000
     61      10.8486      0.00000
     62      10.8770      0.00000
     63      10.9000      0.00000
     64      10.9796      0.00000

 k-point   122 :       0.4444   -0.4444    0.3333
  band No.  band energies     occupation 
      1     -38.0769      1.00000
      2     -38.0575      1.00000
      3     -38.0451      1.00000
      4     -38.0329      1.00000
      5     -18.4438      1.00000
      6     -18.4172      1.00000
      7     -18.4036      1.00000
      8     -18.3944      1.00000
      9     -18.3757      1.00000
     10     -18.3686      1.00000
     11     -18.3451      1.00000
     12     -18.3201      1.00000
     13     -18.1758      1.00000
     14     -18.1741      1.00000
     15     -18.1480      1.00000
     16     -18.1462      1.00000
     17     -10.9901      1.00000
     18     -10.9866      1.00000
     19     -10.3182      1.00000
     20     -10.3036      1.00000
     21      -4.3968      1.00000
     22      -4.3935      1.00000
     23      -4.3796      1.00000
     24      -4.3763      1.00000
     25      -4.3070      1.00000
     26      -4.2814      1.00000
     27      -4.1112      1.00000
     28      -4.0922      1.00000
     29      -4.0862      1.00000
     30      -4.0604      1.00000
     31      -0.0733      1.00000
     32      -0.0055      1.00000
     33       0.5839      1.00000
     34       0.6114      1.00000
     35       0.6403      1.00000
     36       0.6823      1.00000
     37       1.0172      1.00000
     38       1.0319      1.00000
     39       1.6909      1.00000
     40       1.7601      1.00000
     41       1.9025      1.00000
     42       1.9663      1.00000
     43       4.6506      0.00000
     44       4.6752      0.00000
     45       5.3484      0.00000
     46       5.4288      0.00000
     47       6.7846      0.00000
     48       6.8075      0.00000
     49       7.5542      0.00000
     50       7.6540      0.00000
     51       8.6668      0.00000
     52       8.6964      0.00000
     53       9.3277      0.00000
     54       9.3881      0.00000
     55      10.1904      0.00000
     56      10.2701      0.00000
     57      10.3555      0.00000
     58      10.4207      0.00000
     59      10.6587      0.00000
     60      10.7639      0.00000
     61      10.8486      0.00000
     62      10.8770      0.00000
     63      10.9000      0.00000
     64      10.9795      0.00000


--------------------------------------------------------------------------------------------------------


 soft charge-density along one line, spin component           1
         0         1         2         3         4         5         6         7         8         9
 total charge-density along one line
 
 soft charge-density along one line, spin component           2
         0         1         2         3         4         5         6         7         8         9
 total charge-density along one line
 
 pseudopotential strength for first ion, spin component:           1
-10.224  -0.000   0.000   0.000   0.000 -10.564  -0.000   0.000
 -0.000 -10.154   0.000  -0.000   0.000  -0.000 -10.491   0.000
  0.000   0.000 -10.108  -0.000   0.000   0.000   0.000 -10.460
  0.000  -0.000  -0.000 -10.154  -0.000   0.000  -0.000  -0.000
  0.000   0.000   0.000  -0.000 -10.222   0.000   0.000   0.000
-10.564  -0.000   0.000   0.000   0.000 -10.831  -0.000   0.000
 -0.000 -10.491   0.000  -0.000   0.000  -0.000 -10.755   0.000
  0.000   0.000 -10.460  -0.000   0.000   0.000   0.000 -10.737
  0.000  -0.000  -0.000 -10.491  -0.000   0.000  -0.000  -0.000
  0.000   0.000   0.000  -0.000 -10.562   0.000   0.000   0.000
 -0.000   0.000   0.031  -0.000  -0.000  -0.000   0.000   0.029
 -0.000   0.000   0.052  -0.000  -0.000  -0.000   0.000   0.049
  0.000  -0.000   0.000   0.000   0.000   0.000  -0.000   0.000
  0.000  -0.000  -0.002   0.000  -0.000   0.000  -0.000  -0.002
 -0.000   0.000  -0.000  -0.000   0.000  -0.000   0.000  -0.000
  0.000  -0.000   0.000   0.000   0.000   0.000  -0.000   0.000
  0.000  -0.000  -0.003   0.000  -0.000   0.000  -0.000  -0.003
 -0.000   0.000   0.000  -0.000   0.000  -0.000   0.000   0.000
 pseudopotential strength for first ion, spin component:           2
-10.224  -0.000   0.000   0.000  -0.000 -10.564  -0.000   0.000
 -0.000 -10.154  -0.000  -0.000  -0.000  -0.000 -10.491  -0.000
  0.000  -0.000 -10.108  -0.000   0.000   0.000  -0.000 -10.460
  0.000  -0.000  -0.000 -10.154  -0.000   0.000  -0.000  -0.000
 -0.000  -0.000   0.000  -0.000 -10.222  -0.000  -0.000   0.000
-10.564  -0.000   0.000   0.000  -0.000 -10.831  -0.000   0.000
 -0.000 -10.491  -0.000  -0.000  -0.000  -0.000 -10.755  -0.000
  0.000  -0.000 -10.460  -0.000   0.000   0.000  -0.000 -10.737
  0.000  -0.000  -0.000 -10.491  -0.000   0.000  -0.000  -0.000
 -0.000  -0.000   0.000  -0.000 -10.562  -0.000  -0.000   0.000
 -0.000   0.000   0.031  -0.000  -0.000  -0.000   0.000   0.029
 -0.000   0.000   0.052  -0.000  -0.000  -0.000   0.000   0.049
  0.000  -0.000  -0.000   0.000  -0.000   0.000  -0.000  -0.000
  0.000  -0.000  -0.002   0.000  -0.000   0.000  -0.000  -0.002
  0.000   0.000  -0.000  -0.000   0.000   0.000   0.000  -0.000
  0.000  -0.000  -0.000   0.000  -0.000   0.000  -0.000  -0.000
  0.000  -0.000  -0.003   0.000  -0.000   0.000  -0.000  -0.003
  0.000   0.000   0.000  -0.000   0.000   0.000   0.000   0.000
 total augmentation occupancy for first ion, spin component:           1
  2.168  -0.002  -0.000   0.000  -0.000  -0.104   0.002   0.000  -0.000   0.000   0.000   0.000   0.001  -0.000  -0.000  -0.000
 -0.002   5.560   0.000   0.000  -0.000   0.002  -3.301  -0.000  -0.000   0.000  -0.000   0.000  -0.012  -0.000   0.000   0.001
 -0.000   0.000   4.716   0.001  -0.000   0.000  -0.000  -3.434   0.000   0.000  -3.076   0.805  -0.000  -0.032   0.000   0.000
  0.000   0.000   0.001   5.560  -0.003  -0.000  -0.000   0.000  -3.301   0.003   0.004  -0.001   0.000   0.003  -0.012  -0.000
 -0.000  -0.000  -0.000  -0.003   2.427   0.000   0.000   0.000   0.003  -0.299  -0.000   0.000   0.000  -0.000   0.001  -0.000
 -0.104   0.002   0.000  -0.000   0.000   0.026  -0.002  -0.000   0.000  -0.000  -0.000   0.000  -0.000   0.000   0.000   0.000
  0.002  -3.301  -0.000  -0.000   0.000  -0.002   3.033   0.000   0.000  -0.000   0.000  -0.000   0.011   0.000  -0.000  -0.002
  0.000  -0.000  -3.434   0.000   0.000  -0.000   0.000   4.077  -0.001  -0.000   3.199  -0.989   0.000   0.034  -0.001  -0.000
 -0.000  -0.000   0.000  -3.301   0.003   0.000   0.000  -0.001   3.033  -0.002  -0.004   0.001  -0.000  -0.003   0.011   0.000
  0.000   0.000   0.000   0.003  -0.299  -0.000  -0.000  -0.000  -0.002   0.160   0.000  -0.000  -0.000   0.000  -0.001   0.000
  0.000  -0.000  -3.076   0.004  -0.000  -0.000   0.000   3.199  -0.004   0.000   3.478  -0.881   0.000   0.015  -0.001  -0.000
  0.000   0.000   0.805  -0.001   0.000   0.000  -0.000  -0.989   0.001  -0.000  -0.881   0.292  -0.000  -0.005   0.000   0.000
  0.001  -0.012  -0.000   0.000   0.000  -0.000   0.011   0.000  -0.000  -0.000   0.000  -0.000   0.256   0.000  -0.000  -0.037
 -0.000  -0.000  -0.032   0.003  -0.000   0.000   0.000   0.034  -0.003   0.000   0.015  -0.005   0.000   1.064  -0.001  -0.000
 -0.000   0.000   0.000  -0.012   0.001   0.000  -0.000  -0.001   0.011  -0.001  -0.001   0.000  -0.000  -0.001   0.256   0.000
 -0.000   0.001   0.000  -0.000  -0.000   0.000  -0.002  -0.000   0.000   0.000  -0.000   0.000  -0.037  -0.000   0.000   0.006
  0.000   0.000   0.008  -0.001   0.000  -0.000  -0.000  -0.008   0.001  -0.000  -0.004   0.002  -0.000  -0.238   0.000   0.000
  0.000  -0.000  -0.000   0.001  -0.000  -0.000   0.000   0.000  -0.002   0.000   0.000  -0.000   0.000   0.000  -0.037  -0.000
 total augmentation occupancy for first ion, spin component:           2
  0.000  -0.000   0.000  -0.000  -0.000  -0.000   0.000  -0.000   0.000   0.000   0.000  -0.000  -0.000  -0.000  -0.000  -0.000
 -0.000   0.000  -0.000   0.000  -0.000  -0.000  -0.000   0.000  -0.000   0.000   0.000  -0.000  -0.000  -0.000  -0.000  -0.000
  0.000  -0.000  -0.000  -0.000   0.000  -0.000   0.000   0.000  -0.000   0.000   0.000  -0.000  -0.000   0.000  -0.000  -0.000
 -0.000   0.000  -0.000   0.000  -0.000   0.000  -0.000  -0.000  -0.000   0.000   0.000  -0.000   0.000  -0.000  -0.000  -0.000
 -0.000  -0.000   0.000  -0.000   0.000   0.000   0.000   0.000   0.000  -0.000   0.000  -0.000   0.000   0.000  -0.000  -0.000
 -0.000  -0.000  -0.000   0.000   0.000   0.000   0.000   0.000  -0.000  -0.000  -0.000   0.000   0.000  -0.000   0.000  -0.000
  0.000  -0.000   0.000  -0.000   0.000   0.000   0.000  -0.000   0.000  -0.000  -0.000   0.000   0.000   0.000   0.000   0.000
 -0.000   0.000   0.000  -0.000   0.000   0.000  -0.000  -0.000   0.000  -0.000  -0.000   0.000  -0.000  -0.000   0.000   0.000
  0.000  -0.000  -0.000  -0.000   0.000  -0.000   0.000   0.000   0.000  -0.000  -0.000   0.000  -0.000   0.000   0.000   0.000
  0.000   0.000   0.000   0.000  -0.000  -0.000  -0.000  -0.000  -0.000   0.000  -0.000   0.000   0.000  -0.000   0.000  -0.000
  0.000   0.000   0.000   0.000   0.000  -0.000  -0.000  -0.000  -0.000  -0.000  -0.000   0.000  -0.000  -0.000   0.000   0.000
 -0.000  -0.000  -0.000  -0.000  -0.000   0.000   0.000   0.000   0.000   0.000   0.000  -0.000  -0.000   0.000  -0.000  -0.000
 -0.000  -0.000  -0.000   0.000   0.000   0.000   0.000  -0.000  -0.000   0.000  -0.000  -0.000   0.000  -0.000  -0.000  -0.000
 -0.000  -0.000   0.000  -0.000   0.000  -0.000   0.000  -0.000   0.000  -0.000  -0.000   0.000  -0.000  -0.000  -0.000   0.000
 -0.000  -0.000  -0.000  -0.000  -0.000   0.000   0.000   0.000   0.000   0.000   0.000  -0.000  -0.000  -0.000   0.000   0.000
 -0.000  -0.000  -0.000  -0.000  -0.000  -0.000   0.000   0.000   0.000  -0.000   0.000  -0.000  -0.000   0.000   0.000   0.000
  0.000   0.000   0.000   0.000  -0.000  -0.000  -0.000   0.000  -0.000   0.000   0.000  -0.000   0.000   0.000   0.000  -0.000
  0.000  -0.000   0.000  -0.000   0.000  -0.000   0.000  -0.000   0.000  -0.000  -0.000   0.000   0.000   0.000  -0.000  -0.000


------------------------ aborting loop because EDIFF is reached ----------------------------------------


 


 total charge     
 
# of ion       s       p       d       tot
------------------------------------------
    1        0.696   0.649   9.762  11.107
    2        0.694   0.643   9.761  11.098
    3        2.040   5.872   0.275   8.187
    4        2.040   5.872   0.276   8.188
    5        2.040   5.872   0.276   8.188
    6        2.040   5.872   0.275   8.188
    7        1.255   2.424   0.000   3.679
    8        1.255   2.422   0.000   3.677
    9        1.255   2.422   0.000   3.677
   10        1.255   2.422   0.000   3.677
--------------------------------------------------
tot         14.570  34.472  20.624  69.666
 


 magnetization (x)
 
# of ion       s       p       d       tot
------------------------------------------
    1        0.000   0.000  -0.000   0.000
    2        0.000   0.000  -0.000   0.000
    3        0.000   0.000   0.000   0.000
    4        0.000   0.000   0.000   0.000
    5        0.000   0.000   0.000   0.000
    6        0.000   0.000   0.000   0.000
    7       -0.000  -0.000   0.000  -0.000
    8       -0.000  -0.000   0.000  -0.000
    9       -0.000  -0.000   0.000  -0.000
   10       -0.000  -0.000   0.000  -0.000
--------------------------------------------------
tot          0.000  -0.000   0.000  -0.000
 
    CHARGE:  cpu time    0.1283: real time    0.1286
    FORLOC:  cpu time    0.0007: real time    0.0007
    FORNL :  cpu time    0.6784: real time    0.6798
    STRESS:  cpu time   19.9946: real time   20.0292
    FORCOR:  cpu time    0.0298: real time    0.0300
    FORHAR:  cpu time    0.0025: real time    0.0026
    MIXING:  cpu time    0.0007: real time    0.0007
    OFIELD:  cpu time    0.0001: real time    0.0001

  FORCE on cell =-STRESS in cart. coord.  units (eV):
  Direction    XX          YY          ZZ          XY          YZ          ZX
  --------------------------------------------------------------------------------------
  Alpha Z   451.66504   451.66504   451.66504
  Ewald   -2313.37426 -2313.37305 -1363.00512    -0.00001     0.00002    -0.44487
  Hartree   581.46886   581.46957  1108.18233    -0.00000     0.00002    -0.27235
  E(xc)    -437.27931  -437.27928  -437.77155    -0.00000     0.00000    -0.00053
  Local     719.04645   719.04468  -709.40379     0.00001    -0.00004     0.70795
  n-local  -256.35884  -256.35879  -243.09000     0.00000    -0.00000    -0.00203
  augment   209.99141   209.99144   203.23920    -0.00000    -0.00000     0.00105
  Kinetic  1044.83275  1044.83249   990.49254    -0.00000    -0.00000     0.00468
  Fock        0.00000     0.00000     0.00000     0.00000     0.00000     0.00000
  -------------------------------------------------------------------------------------
  Total      -0.00790    -0.00790     0.30866     0.00000     0.00000    -0.00609
  in kB      -0.07932    -0.07939     3.09993     0.00000     0.00000    -0.06119
  external pressure =        0.98 kB  Pullay stress =        0.00 kB


 VOLUME and BASIS-vectors are now :
 -----------------------------------------------------------------------------
  energy-cutoff  :      520.00
  volume of cell :      159.53
      direct lattice vectors                 reciprocal lattice vectors
     3.574043013  0.000000006 -0.000000042     0.279795178 -0.000000001  0.000000003
     0.000000007  3.574042987 -0.000000007    -0.000000001  0.279795180  0.000000001
    -0.000000145 -0.000000025 12.488892887     0.000000001  0.000000000  0.080071149

  length of vectors
     3.574043013  3.574042987 12.488892887     0.279795178  0.279795180  0.080071149


 FORCES acting on ions
    electron-ion (+dipol)            ewald-force                    non-local-force                 convergence-correction
 -----------------------------------------------------------------------------------------------
   -.278E+00 0.914E-05 0.230E+01   0.268E+00 -.904E-05 -.251E+01   0.644E-02 -.751E-08 0.479E-01   -.253E-05 -.135E-06 -.258E-03
   0.931E-03 -.111E-04 0.719E+00   -.148E-02 0.107E-04 -.641E+00   0.466E-03 0.313E-06 -.631E-01   -.640E-07 0.982E-07 0.259E-03
   -.688E-01 0.160E-04 -.203E+02   0.649E-01 -.154E-04 0.179E+02   0.285E-02 -.665E-06 0.245E+01   0.232E-06 0.883E-07 0.913E-04
   0.453E-03 0.928E-05 0.220E+02   0.226E-04 -.924E-05 -.194E+02   -.356E-03 -.319E-06 -.250E+01   -.443E-06 0.546E-07 0.125E-03
   0.314E-02 0.534E-06 -.208E+02   -.379E-02 -.370E-06 0.184E+02   0.568E-03 -.241E-06 0.247E+01   0.283E-06 -.179E-06 -.946E-04
   0.371E+00 -.221E-04 0.194E+02   -.350E+00 0.213E-04 -.170E+02   -.262E-01 0.124E-05 -.241E+01   -.256E-06 -.347E-07 -.130E-03
   -.525E-01 0.879E-05 -.104E+03   0.328E-01 -.855E-05 0.114E+03   0.275E-01 -.568E-06 -.101E+02   -.593E-06 0.132E-06 -.156E-03
   -.575E-02 -.755E-06 0.100E+03   0.326E-02 0.718E-06 -.110E+03   0.422E-02 -.565E-07 0.101E+02   -.277E-06 0.835E-07 0.411E-04
   -.208E-03 -.608E-05 -.996E+02   -.896E-05 0.611E-05 0.110E+03   0.281E-03 0.444E-07 -.102E+02   0.376E-07 0.537E-07 -.173E-04
   0.144E-01 -.431E-05 0.100E+03   -.135E-01 0.384E-05 -.110E+03   -.145E-02 0.780E-06 0.101E+02   0.596E-07 -.159E-08 0.132E-03
 -----------------------------------------------------------------------------------------------
   -.154E-01 -.570E-06 0.434E-01   0.841E-14 0.549E-14 -.426E-13   0.143E-01 0.519E-06 -.400E-01   -.355E-05 0.160E-06 -.687E-05
 
 
 POSITION                                       TOTAL-FORCE (eV/Angst)
 -----------------------------------------------------------------------------------
      3.57404      0.00000      0.00000        -0.003592     -0.000000     -0.163844
      1.78702      1.78702      6.24445         0.000042      0.000000      0.014323
      0.00000      3.57404      4.21585        -0.000964     -0.000000     -0.016938
      0.00000      0.00000      8.27305         0.000228     -0.000000      0.016126
      1.78702      1.78702     10.46029         0.000032     -0.000000      0.011892
      1.78702      1.78702      2.02860        -0.005182      0.000000     -0.033183
      3.57129      0.00000      1.81096         0.007854     -0.000000      0.231712
      3.57404     -0.00000     10.66832         0.001866     -0.000000     -0.022214
      1.78702      1.78702      8.06502         0.000173      0.000000     -0.018619
      1.78702      1.78702      4.42387        -0.000456      0.000000     -0.019255
 -----------------------------------------------------------------------------------
    total drift:                               -0.001089      0.000000      0.003385


--------------------------------------------------------------------------------------------------------



  FREE ENERGIE OF THE ION-ELECTRON SYSTEM (eV)
  ---------------------------------------------------
  free  energy   TOTEN  =      -111.54073883 eV

  energy  without entropy=     -111.54073883  energy(sigma->0) =     -111.54073883
 


--------------------------------------------------------------------------------------------------------


    POTLOK:  cpu time    1.0128: real time    1.0141


--------------------------------------------------------------------------------------------------------


     LOOP+:  cpu time  298.9521: real time  299.8883
    4ORBIT:  cpu time    0.0000: real time    0.0000
 


 total charge     
 
# of ion       s       p       d       tot
------------------------------------------
    1        0.696   0.649   9.762  11.107
    2        0.694   0.643   9.761  11.098
    3        2.040   5.872   0.275   8.187
    4        2.040   5.872   0.276   8.188
    5        2.040   5.872   0.276   8.188
    6        2.040   5.872   0.275   8.188
    7        1.255   2.424   0.000   3.679
    8        1.255   2.422   0.000   3.677
    9        1.255   2.422   0.000   3.677
   10        1.255   2.422   0.000   3.677
--------------------------------------------------
tot         14.570  34.472  20.624  69.666
 


 magnetization (x)
 
# of ion       s       p       d       tot
------------------------------------------
    1        0.000   0.000  -0.000   0.000
    2        0.000   0.000  -0.000   0.000
    3        0.000   0.000   0.000   0.000
    4        0.000   0.000   0.000   0.000
    5        0.000   0.000   0.000   0.000
    6        0.000   0.000   0.000   0.000
    7       -0.000  -0.000   0.000  -0.000
    8       -0.000  -0.000   0.000  -0.000
    9       -0.000  -0.000   0.000  -0.000
   10       -0.000  -0.000   0.000  -0.000
--------------------------------------------------
tot          0.000  -0.000   0.000  -0.000
 

 total amount of memory used by VASP MPI-rank0   111221. kBytes
=======================================================================

   base      :      30000. kBytes
   nonl-proj :      58361. kBytes
   fftplans  :        935. kBytes
   grid      :       3843. kBytes
   one-center:         93. kBytes
   wavefun   :      17989. kBytes
 
  
  
 General timing and accounting informations for this job:
 ========================================================
  
                  Total CPU time used (sec):      309.980
                            User time (sec):      302.179
                          System time (sec):        7.801
                         Elapsed time (sec):      311.442
  
                   Maximum memory used (kb):      181892.
                   Average memory used (kb):           0.
  
                          Minor page faults:        44151
                          Major page faults:            0
                 Voluntary context switches:          926
