 vasp.6.3.1 04May22 (build Nov  5 2022 14:28:48) complex                         
 executed on              LinuxNV date 2022.11.29  12:28:20
 running    1 mpi-ranks, with    1 threads/rank
 distrk:  each k-point on    1 cores,    1 groups
 distr:  one band on NCORE=   1 cores,    1 groups


--------------------------------------------------------------------------------------------------------


 INCAR:
   ALGO = Normal
   EDIFF = 1E-6
   EDIFFG = -0.03
   ENCUT = 520
   IBRION = -1
   ICHARG = 2
   ISIF = 2
   ISYM = 0
   ISPIN = 2
   LREAL = False
   NELMIN = 6
   NELM = 200
   PREC = Accurate
   ISMEAR = 0
   SIGMA = 0.05
   MAGMOM = 5*0.06
   LWAVE = False
   LCHARG = False
   LORBIT = 11
   LPLANE = True
   NCORE = 6
   NSIM = 4
   METAGGA = SCAN
   LASPH = True

 POTCAR:    PAW_PBE Ca_sv 06Sep2000               
 POTCAR:    PAW_PBE Zn 06Sep2000                  
 POTCAR:    PAW_PBE P 06Sep2000                   
 POTCAR:    PAW_PBE Ca_sv 06Sep2000               
   SHA256 =  a47365830e737f14e0e6c5cf1ed81b94e081eecf0a33df105380881bc9da05d5 Ca_sv/POTCAR          
   COPYR  = (c) Copyright 06Sep2000 Georg Kresse                                                    
   COPYR  = This file is part of the software VASP. Any use, copying, and all other rights are regul
   COPYR  = If you do not have a valid VASP license, you may not use, copy or distribute this file. 
   VRHFIN =Ca: 3s3p4s                                                                               
   LEXCH  = PE                                                                                      
   EATOM  =  1006.0909 eV,   73.9456 Ry                                                             
                                                                                                    
   TITEL  = PAW_PBE Ca_sv 06Sep2000                                                                 
   LULTRA =        F    use ultrasoft PP ?                                                          
   IUNSCR =        1    unscreen: 0-lin 1-nonlin 2-no                                               
   RPACOR =    2.000    partial core radius                                                         
   POMASS =   40.078; ZVAL   =   10.000    mass and valenz                                          
   RCORE  =    2.300    outmost cutoff radius                                                       
   RWIGS  =    2.500; RWIGS  =    1.323    wigner-seitz radius (au A)                               
   ENMAX  =  266.622; ENMIN  =  199.967 eV                                                          
   RCLOC  =    1.808    cutoff for local pot                                                        
   LCOR   =        T    correct aug charges                                                         
   LPAW   =        T    paw PP                                                                      
   EAUG   =  420.852                                                                                
   RMAX   =    2.359    core radius for proj-oper                                                   
   RAUG   =    1.300    factor for augmentation sphere                                              
   RDEP   =    2.392    radius for radial grids                                                     
   RDEPT  =    1.987    core radius for aug-charge                                                  
                                                                                                    
   Atomic configuration                                                                             
    7 entries                                                                                       
     n  l   j            E        occ.                                                              
     1  0  0.50     -3949.1705   2.0000                                                             
     2  0  0.50      -414.3434   2.0000                                                             
     2  1  1.50      -334.7047   6.0000                                                             
     3  0  0.50       -47.0896   2.0000                                                             
     4  0  0.50        -3.7663   2.0000                                                             
     3  1  1.50       -28.0061   6.0000                                                             
     3  2  1.50        -4.0817   0.0000                                                             
   Description                                                                                      
     l       E           TYP  RCUT    TYP  RCUT                                                     
     0    -47.0896403     23  2.300                                                                 
     0     -3.7663320     23  2.300                                                                 
     1    -28.0060855     23  2.300                                                                 
     1      6.8029130     23  2.300                                                                 
     2     -4.0817478     23  2.300                                                                 
     2      0.4464412     23  2.300                                                                 
  local pseudopotential read in
  partial core-charges read in
  partial kinetic energy density read in
  atomic valenz-charges read in
  non local Contribution for L=            0  read in
    real space projection operators read in
  non local Contribution for L=            0  read in
    real space projection operators read in
  non local Contribution for L=            1  read in
    real space projection operators read in
  non local Contribution for L=            1  read in
    real space projection operators read in
  non local Contribution for L=            2  read in
    real space projection operators read in
  non local Contribution for L=            2  read in
    real space projection operators read in
    PAW grid and wavefunctions read in
 
   number of l-projection  operators is LMAX  =            6
   number of lm-projection operators is LMMAX =           18
 
 POTCAR:    PAW_PBE Zn 06Sep2000                  
   SHA256 =  501fddbd8274dd8e9725d4f3de27861d7f1e553a7e18441bc79fed8f346e7f23 Zn/POTCAR             
   COPYR  = (c) Copyright 06Sep2000 Georg Kresse                                                    
   COPYR  = This file is part of the software VASP. Any use, copying, and all other rights are regul
   COPYR  = If you do not have a valid VASP license, you may not use, copy or distribute this file. 
   VRHFIN =Zn: d10 p2                                                                               
   LEXCH  = PE                                                                                      
   EATOM  =  1748.8345 eV,  128.5357 Ry                                                             
                                                                                                    
   TITEL  = PAW_PBE Zn 06Sep2000                                                                    
   LULTRA =        F    use ultrasoft PP ?                                                          
   IUNSCR =        1    unscreen: 0-lin 1-nonlin 2-no                                               
   RPACOR =    2.000    partial core radius                                                         
   POMASS =   65.390; ZVAL   =   12.000    mass and valenz                                          
   RCORE  =    2.300    outmost cutoff radius                                                       
   RWIGS  =    2.400; RWIGS  =    1.270    wigner-seitz radius (au A)                               
   ENMAX  =  276.723; ENMIN  =  207.542 eV                                                          
   RCLOC  =    1.828    cutoff for local pot                                                        
   LCOR   =        T    correct aug charges                                                         
   LPAW   =        T    paw PP                                                                      
   EAUG   =  575.892                                                                                
   DEXC   =    0.000                                                                                
   RMAX   =    2.347    core radius for proj-oper                                                   
   RAUG   =    1.300    factor for augmentation sphere                                              
   RDEP   =    2.324    radius for radial grids                                                     
   RDEPT  =    1.788    core radius for aug-charge                                                  
                                                                                                    
   Atomic configuration                                                                             
    9 entries                                                                                       
     n  l   j            E        occ.                                                              
     1  0  0.50     -9524.6913   2.0000                                                             
     2  0  0.50     -1158.1882   2.0000                                                             
     2  1  1.50     -1003.8506   6.0000                                                             
     3  0  0.50      -129.2194   2.0000                                                             
     3  1  1.50       -83.3890   6.0000                                                             
     3  2  2.50       -10.1410  10.0000                                                             
     4  0  0.50        -5.9785   2.0000                                                             
     4  1  0.50        -4.0817   0.0000                                                             
     4  3  2.50        -1.3606   0.0000                                                             
   Description                                                                                      
     l       E           TYP  RCUT    TYP  RCUT                                                     
     2    -10.1410010     23  2.300                                                                 
     2    -11.5015836     23  2.300                                                                 
     0     -5.9785163     23  2.300                                                                 
     0      1.1858015     23  2.300                                                                 
     1     -2.7211652     23  2.300                                                                 
     1     13.2444212     23  2.300                                                                 
  local pseudopotential read in
  partial core-charges read in
  partial kinetic energy density read in
  atomic valenz-charges read in
  non local Contribution for L=            2  read in
    real space projection operators read in
  non local Contribution for L=            2  read in
    real space projection operators read in
  non local Contribution for L=            0  read in
    real space projection operators read in
  non local Contribution for L=            0  read in
    real space projection operators read in
  non local Contribution for L=            1  read in
    real space projection operators read in
  non local Contribution for L=            1  read in
    real space projection operators read in
    PAW grid and wavefunctions read in
 
   number of l-projection  operators is LMAX  =            6
   number of lm-projection operators is LMMAX =           18
 
 POTCAR:    PAW_PBE P 06Sep2000                   
   SHA256 =  df60c54a93efe35c9e85ae94c010c75e9f6960a95d5595d7cdba4096d109af88 P/POTCAR              
   COPYR  = (c) Copyright 06Sep2000 Georg Kresse                                                    
   COPYR  = This file is part of the software VASP. Any use, copying, and all other rights are regul
   COPYR  = If you do not have a valid VASP license, you may not use, copy or distribute this file. 
   VRHFIN =P : s2p3                                                                                 
   LEXCH  = PE                                                                                      
   EATOM  =   176.0430 eV,   12.9388 Ry                                                             
                                                                                                    
   TITEL  = PAW_PBE P 06Sep2000                                                                     
   LULTRA =        F    use ultrasoft PP ?                                                          
   IUNSCR =        1    unscreen: 0-lin 1-nonlin 2-no                                               
   RPACOR =    1.500    partial core radius                                                         
   POMASS =   30.974; ZVAL   =    5.000    mass and valenz                                          
   RCORE  =    1.900    outmost cutoff radius                                                       
   RWIGS  =    2.330; RWIGS  =    1.233    wigner-seitz radius (au A)                               
   ENMAX  =  255.040; ENMIN  =  191.280 eV                                                          
   ICORE  =        2    local potential                                                             
   LCOR   =        T    correct aug charges                                                         
   LPAW   =        T    paw PP                                                                      
   EAUG   =  342.924                                                                                
   DEXC   =    0.000                                                                                
   RMAX   =    1.935    core radius for proj-oper                                                   
   RAUG   =    1.300    factor for augmentation sphere                                              
   RDEP   =    1.931    radius for radial grids                                                     
   RDEPT  =    1.794    core radius for aug-charge                                                  
                                                                                                    
   Atomic configuration                                                                             
    6 entries                                                                                       
     n  l   j            E        occ.                                                              
     1  0  0.50     -2084.0982   2.0000                                                             
     2  0  0.50      -173.9859   2.0000                                                             
     2  1  1.50      -124.4865   6.0000                                                             
     3  0  0.50       -13.9692   2.0000                                                             
     3  1  0.50        -5.5067   3.0000                                                             
     3  2  1.50        -5.4423   0.0000                                                             
   Description                                                                                      
     l       E           TYP  RCUT    TYP  RCUT                                                     
     0    -13.9691527     23  1.900                                                                 
     0    -11.7794650     23  1.900                                                                 
     1     -5.5066937     23  1.900                                                                 
     1     -0.2556953     23  1.900                                                                 
     2     -5.4423304     23  1.900                                                                 
  local pseudopotential read in
  partial core-charges read in
  partial kinetic energy density read in
  atomic valenz-charges read in
  non local Contribution for L=            0  read in
    real space projection operators read in
  non local Contribution for L=            0  read in
    real space projection operators read in
  non local Contribution for L=            1  read in
    real space projection operators read in
  non local Contribution for L=            1  read in
    real space projection operators read in
    PAW grid and wavefunctions read in
 
   number of l-projection  operators is LMAX  =            4
   number of lm-projection operators is LMMAX =            8
 
  PAW_PBE Ca_sv 06Sep2000               :
 energy of atom  1       EATOM=-1006.0909
 kinetic energy error for atom=    0.0022 (will be added to EATOM!!)
  PAW_PBE Zn 06Sep2000                  :
 energy of atom  2       EATOM=-1748.8345
 kinetic energy error for atom=    0.0029 (will be added to EATOM!!)
  PAW_PBE P 06Sep2000                   :
 energy of atom  3       EATOM= -176.0430
 kinetic energy error for atom=    0.0011 (will be added to EATOM!!)
 
 
 POSCAR: generated by phonopy
  positions in direct lattice
  No initial velocities read in

 METAGGA = SCAN     LMAXTAU =  6    LMIXTAU =  F

 exchange correlation table for  LEXCH =        8
   RHO(1)=    0.500       N(1)  =     2000
   RHO(2)=  100.500       N(2)  =     4000
 


--------------------------------------------------------------------------------------------------------


 ion  position               nearest neighbor table
   1  1.000  1.000  1.000-   4 2.93   5 2.93   4 2.93   5 2.93   4 2.93   5 2.93
   2  0.333  0.667  0.635-   5 2.41   5 2.41   5 2.41   4 2.52   3 2.94   3 2.94   3 2.94
   3  0.667  0.333  0.367-   4 2.41   4 2.41   4 2.41   5 2.51   2 2.94   2 2.94   2 2.94
   4  0.333  0.667  0.265-   3 2.41   3 2.41   3 2.41   2 2.52   1 2.93   1 2.93   1 2.93
   5  0.667  0.333  0.735-   2 2.41   2 2.41   2 2.41   3 2.51   1 2.93   1 2.93   1 2.93
 

IMPORTANT INFORMATION: All symmetrisations will be switched off!
NOSYMM: (Re-)initialisation of all symmetry stuff for point group C_1.


----------------------------------------------------------------------------------------

                                     Primitive cell                                     

  volume of cell :      94.4679

  direct lattice vectors                    reciprocal lattice vectors
     4.005197642 -0.000212520  0.000031215     0.249683220  0.144186399 -0.000002511
    -2.002782849  3.468158389 -0.000001936     0.000015300  0.288346301 -0.000001132
     0.000052989  0.000026694  6.801033585    -0.000001146 -0.000000580  0.147036474

  length of vectors
     4.005197648  4.004904712  6.801033585     0.288325212  0.288346301  0.147036474

  position of ions in fractional coordinates (direct lattice)
     0.999999990  0.999999998  0.999999991
     0.333327567  0.666663940  0.634735987
     0.666672409  0.333336061  0.366734740
     0.333335260  0.666668298  0.264714463
     0.666664714  0.333331703  0.735285214

  ion indices of the primitive-cell ions
   primitive index   ion index
                 1           1
                 2           2
                 3           3
                 4           4
                 5           5

----------------------------------------------------------------------------------------

 
 
 KPOINTS: Kpoints                                 

Automatic generation of k-mesh.
 Grid dimensions derived from RKLEN:
 generate k-points for:    9    9    5

 Generating k-lattice:

  Cartesian coordinates                     Fractional coordinates (reciprocal lattice)
     0.027742580  0.016020711 -0.000000279     0.111111111 -0.000000000  0.000000000
     0.000001700  0.032038478 -0.000000126     0.000000000  0.111111111 -0.000000000
    -0.000000229 -0.000000116  0.029407295    -0.000000000  0.000000000  0.200000000

  Length of vectors
     0.032036135  0.032038478  0.029407295

  Shift w.r.t. Gamma in fractional coordinates (k-lattice)
     0.000000000  0.000000000  0.000000000

 
 Subroutine IBZKPT returns following result:
 ===========================================
 
 Found    203 irreducible k-points:
 
 Following reciprocal coordinates:
            Coordinates               Weight
  0.000000  0.000000  0.000000      1.000000
  0.111111  0.000000  0.000000      2.000000
  0.222222  0.000000  0.000000      2.000000
  0.333333  0.000000  0.000000      2.000000
  0.444444  0.000000  0.000000      2.000000
  0.000000  0.111111  0.000000      2.000000
  0.111111  0.111111  0.000000      2.000000
  0.222222  0.111111  0.000000      2.000000
  0.333333  0.111111  0.000000      2.000000
  0.444444  0.111111  0.000000      2.000000
 -0.444444  0.111111  0.000000      2.000000
 -0.333333  0.111111  0.000000      2.000000
 -0.222222  0.111111  0.000000      2.000000
 -0.111111  0.111111  0.000000      2.000000
  0.000000  0.222222  0.000000      2.000000
  0.111111  0.222222  0.000000      2.000000
  0.222222  0.222222  0.000000      2.000000
  0.333333  0.222222  0.000000      2.000000
  0.444444  0.222222  0.000000      2.000000
 -0.444444  0.222222  0.000000      2.000000
 -0.333333  0.222222  0.000000      2.000000
 -0.222222  0.222222  0.000000      2.000000
 -0.111111  0.222222  0.000000      2.000000
  0.000000  0.333333  0.000000      2.000000
  0.111111  0.333333  0.000000      2.000000
  0.222222  0.333333  0.000000      2.000000
  0.333333  0.333333  0.000000      2.000000
  0.444444  0.333333  0.000000      2.000000
 -0.444444  0.333333  0.000000      2.000000
 -0.333333  0.333333  0.000000      2.000000
 -0.222222  0.333333  0.000000      2.000000
 -0.111111  0.333333  0.000000      2.000000
  0.000000  0.444444  0.000000      2.000000
  0.111111  0.444444  0.000000      2.000000
  0.222222  0.444444  0.000000      2.000000
  0.333333  0.444444  0.000000      2.000000
  0.444444  0.444444  0.000000      2.000000
 -0.444444  0.444444  0.000000      2.000000
 -0.333333  0.444444  0.000000      2.000000
 -0.222222  0.444444  0.000000      2.000000
 -0.111111  0.444444  0.000000      2.000000
  0.000000  0.000000  0.200000      2.000000
  0.111111  0.000000  0.200000      2.000000
 -0.111111  0.000000  0.200000      2.000000
  0.222222  0.000000  0.200000      2.000000
 -0.222222  0.000000  0.200000      2.000000
  0.333333  0.000000  0.200000      2.000000
 -0.333333  0.000000  0.200000      2.000000
  0.444444  0.000000  0.200000      2.000000
 -0.444444  0.000000  0.200000      2.000000
  0.000000  0.111111  0.200000      2.000000
  0.000000 -0.111111  0.200000      2.000000
  0.111111  0.111111  0.200000      2.000000
 -0.111111 -0.111111  0.200000      2.000000
  0.222222  0.111111  0.200000      2.000000
 -0.222222 -0.111111  0.200000      2.000000
  0.333333  0.111111  0.200000      2.000000
 -0.333333 -0.111111  0.200000      2.000000
  0.444444  0.111111  0.200000      2.000000
 -0.444444 -0.111111  0.200000      2.000000
 -0.444444  0.111111  0.200000      2.000000
  0.444444 -0.111111  0.200000      2.000000
 -0.333333  0.111111  0.200000      2.000000
  0.333333 -0.111111  0.200000      2.000000
 -0.222222  0.111111  0.200000      2.000000
  0.222222 -0.111111  0.200000      2.000000
 -0.111111  0.111111  0.200000      2.000000
  0.111111 -0.111111  0.200000      2.000000
  0.000000  0.222222  0.200000      2.000000
  0.000000 -0.222222  0.200000      2.000000
  0.111111  0.222222  0.200000      2.000000
 -0.111111 -0.222222  0.200000      2.000000
  0.222222  0.222222  0.200000      2.000000
 -0.222222 -0.222222  0.200000      2.000000
  0.333333  0.222222  0.200000      2.000000
 -0.333333 -0.222222  0.200000      2.000000
  0.444444  0.222222  0.200000      2.000000
 -0.444444 -0.222222  0.200000      2.000000
 -0.444444  0.222222  0.200000      2.000000
  0.444444 -0.222222  0.200000      2.000000
 -0.333333  0.222222  0.200000      2.000000
  0.333333 -0.222222  0.200000      2.000000
 -0.222222  0.222222  0.200000      2.000000
  0.222222 -0.222222  0.200000      2.000000
 -0.111111  0.222222  0.200000      2.000000
  0.111111 -0.222222  0.200000      2.000000
  0.000000  0.333333  0.200000      2.000000
  0.000000 -0.333333  0.200000      2.000000
  0.111111  0.333333  0.200000      2.000000
 -0.111111 -0.333333  0.200000      2.000000
  0.222222  0.333333  0.200000      2.000000
 -0.222222 -0.333333  0.200000      2.000000
  0.333333  0.333333  0.200000      2.000000
 -0.333333 -0.333333  0.200000      2.000000
  0.444444  0.333333  0.200000      2.000000
 -0.444444 -0.333333  0.200000      2.000000
 -0.444444  0.333333  0.200000      2.000000
  0.444444 -0.333333  0.200000      2.000000
 -0.333333  0.333333  0.200000      2.000000
  0.333333 -0.333333  0.200000      2.000000
 -0.222222  0.333333  0.200000      2.000000
  0.222222 -0.333333  0.200000      2.000000
 -0.111111  0.333333  0.200000      2.000000
  0.111111 -0.333333  0.200000      2.000000
  0.000000  0.444444  0.200000      2.000000
  0.000000 -0.444444  0.200000      2.000000
  0.111111  0.444444  0.200000      2.000000
 -0.111111 -0.444444  0.200000      2.000000
  0.222222  0.444444  0.200000      2.000000
 -0.222222 -0.444444  0.200000      2.000000
  0.333333  0.444444  0.200000      2.000000
 -0.333333 -0.444444  0.200000      2.000000
  0.444444  0.444444  0.200000      2.000000
 -0.444444 -0.444444  0.200000      2.000000
 -0.444444  0.444444  0.200000      2.000000
  0.444444 -0.444444  0.200000      2.000000
 -0.333333  0.444444  0.200000      2.000000
  0.333333 -0.444444  0.200000      2.000000
 -0.222222  0.444444  0.200000      2.000000
  0.222222 -0.444444  0.200000      2.000000
 -0.111111  0.444444  0.200000      2.000000
  0.111111 -0.444444  0.200000      2.000000
  0.000000  0.000000  0.400000      2.000000
  0.111111  0.000000  0.400000      2.000000
 -0.111111  0.000000  0.400000      2.000000
  0.222222  0.000000  0.400000      2.000000
 -0.222222  0.000000  0.400000      2.000000
  0.333333  0.000000  0.400000      2.000000
 -0.333333  0.000000  0.400000      2.000000
  0.444444  0.000000  0.400000      2.000000
 -0.444444  0.000000  0.400000      2.000000
  0.000000  0.111111  0.400000      2.000000
  0.000000 -0.111111  0.400000      2.000000
  0.111111  0.111111  0.400000      2.000000
 -0.111111 -0.111111  0.400000      2.000000
  0.222222  0.111111  0.400000      2.000000
 -0.222222 -0.111111  0.400000      2.000000
  0.333333  0.111111  0.400000      2.000000
 -0.333333 -0.111111  0.400000      2.000000
  0.444444  0.111111  0.400000      2.000000
 -0.444444 -0.111111  0.400000      2.000000
 -0.444444  0.111111  0.400000      2.000000
  0.444444 -0.111111  0.400000      2.000000
 -0.333333  0.111111  0.400000      2.000000
  0.333333 -0.111111  0.400000      2.000000
 -0.222222  0.111111  0.400000      2.000000
  0.222222 -0.111111  0.400000      2.000000
 -0.111111  0.111111  0.400000      2.000000
  0.111111 -0.111111  0.400000      2.000000
  0.000000  0.222222  0.400000      2.000000
  0.000000 -0.222222  0.400000      2.000000
  0.111111  0.222222  0.400000      2.000000
 -0.111111 -0.222222  0.400000      2.000000
  0.222222  0.222222  0.400000      2.000000
 -0.222222 -0.222222  0.400000      2.000000
  0.333333  0.222222  0.400000      2.000000
 -0.333333 -0.222222  0.400000      2.000000
  0.444444  0.222222  0.400000      2.000000
 -0.444444 -0.222222  0.400000      2.000000
 -0.444444  0.222222  0.400000      2.000000
  0.444444 -0.222222  0.400000      2.000000
 -0.333333  0.222222  0.400000      2.000000
  0.333333 -0.222222  0.400000      2.000000
 -0.222222  0.222222  0.400000      2.000000
  0.222222 -0.222222  0.400000      2.000000
 -0.111111  0.222222  0.400000      2.000000
  0.111111 -0.222222  0.400000      2.000000
  0.000000  0.333333  0.400000      2.000000
  0.000000 -0.333333  0.400000      2.000000
  0.111111  0.333333  0.400000      2.000000
 -0.111111 -0.333333  0.400000      2.000000
  0.222222  0.333333  0.400000      2.000000
 -0.222222 -0.333333  0.400000      2.000000
  0.333333  0.333333  0.400000      2.000000
 -0.333333 -0.333333  0.400000      2.000000
  0.444444  0.333333  0.400000      2.000000
 -0.444444 -0.333333  0.400000      2.000000
 -0.444444  0.333333  0.400000      2.000000
  0.444444 -0.333333  0.400000      2.000000
 -0.333333  0.333333  0.400000      2.000000
  0.333333 -0.333333  0.400000      2.000000
 -0.222222  0.333333  0.400000      2.000000
  0.222222 -0.333333  0.400000      2.000000
 -0.111111  0.333333  0.400000      2.000000
  0.111111 -0.333333  0.400000      2.000000
  0.000000  0.444444  0.400000      2.000000
  0.000000 -0.444444  0.400000      2.000000
  0.111111  0.444444  0.400000      2.000000
 -0.111111 -0.444444  0.400000      2.000000
  0.222222  0.444444  0.400000      2.000000
 -0.222222 -0.444444  0.400000      2.000000
  0.333333  0.444444  0.400000      2.000000
 -0.333333 -0.444444  0.400000      2.000000
  0.444444  0.444444  0.400000      2.000000
 -0.444444 -0.444444  0.400000      2.000000
 -0.444444  0.444444  0.400000      2.000000
  0.444444 -0.444444  0.400000      2.000000
 -0.333333  0.444444  0.400000      2.000000
  0.333333 -0.444444  0.400000      2.000000
 -0.222222  0.444444  0.400000      2.000000
  0.222222 -0.444444  0.400000      2.000000
 -0.111111  0.444444  0.400000      2.000000
  0.111111 -0.444444  0.400000      2.000000
 
 Following cartesian coordinates:
            Coordinates               Weight
  0.000000  0.000000  0.000000      1.000000
  0.027743  0.016021 -0.000000      2.000000
  0.055485  0.032041 -0.000001      2.000000
  0.083228  0.048062 -0.000001      2.000000
  0.110970  0.064083 -0.000001      2.000000
  0.000002  0.032038 -0.000000      2.000000
  0.027744  0.048059 -0.000000      2.000000
  0.055487  0.064080 -0.000001      2.000000
  0.083229  0.080101 -0.000001      2.000000
  0.110972  0.096121 -0.000001      2.000000
 -0.110969 -0.032044  0.000001      2.000000
 -0.083226 -0.016024  0.000001      2.000000
 -0.055483 -0.000003  0.000000      2.000000
 -0.027741  0.016018  0.000000      2.000000
  0.000003  0.064077 -0.000000      2.000000
  0.027746  0.080098 -0.000001      2.000000
  0.055489  0.096118 -0.000001      2.000000
  0.083231  0.112139 -0.000001      2.000000
  0.110974  0.128160 -0.000001      2.000000
 -0.110967 -0.000006  0.000001      2.000000
 -0.083224  0.016015  0.000001      2.000000
 -0.055482  0.032036  0.000000      2.000000
 -0.027739  0.048056  0.000000      2.000000
  0.000005  0.096115 -0.000000      2.000000
  0.027748  0.112136 -0.000001      2.000000
  0.055490  0.128157 -0.000001      2.000000
  0.083233  0.144178 -0.000001      2.000000
  0.110975  0.160198 -0.000001      2.000000
 -0.110965  0.032033  0.000001      2.000000
 -0.083223  0.048053  0.000000      2.000000
 -0.055480  0.064074  0.000000      2.000000
 -0.027737  0.080095 -0.000000      2.000000
  0.000007  0.128154 -0.000001      2.000000
  0.027749  0.144175 -0.000001      2.000000
  0.055492  0.160195 -0.000001      2.000000
  0.083235  0.176216 -0.000001      2.000000
  0.110977  0.192237 -0.000002      2.000000
 -0.110964  0.064071  0.000001      2.000000
 -0.083221  0.080092  0.000000      2.000000
 -0.055478  0.096112  0.000000      2.000000
 -0.027736  0.112133 -0.000000      2.000000
 -0.000000 -0.000000  0.029407      2.000000
  0.027742  0.016021  0.029407      2.000000
 -0.027743 -0.016021  0.029408      2.000000
  0.055485  0.032041  0.029407      2.000000
 -0.055485 -0.032042  0.029408      2.000000
  0.083228  0.048062  0.029406      2.000000
 -0.083228 -0.048062  0.029408      2.000000
  0.110970  0.064083  0.029406      2.000000
 -0.110971 -0.064083  0.029408      2.000000
  0.000001  0.032038  0.029407      2.000000
 -0.000002 -0.032039  0.029407      2.000000
  0.027744  0.048059  0.029407      2.000000
 -0.027745 -0.048059  0.029408      2.000000
  0.055487  0.064080  0.029407      2.000000
 -0.055487 -0.064080  0.029408      2.000000
  0.083229  0.080100  0.029406      2.000000
 -0.083230 -0.080101  0.029408      2.000000
  0.110972  0.096121  0.029406      2.000000
 -0.110972 -0.096121  0.029409      2.000000
 -0.110969 -0.032044  0.029408      2.000000
  0.110968  0.032044  0.029406      2.000000
 -0.083226 -0.016024  0.029408      2.000000
  0.083226  0.016024  0.029407      2.000000
 -0.055484 -0.000003  0.029408      2.000000
  0.055483  0.000003  0.029407      2.000000
 -0.027741  0.016018  0.029407      2.000000
  0.027741 -0.016018  0.029407      2.000000
  0.000003  0.064077  0.029407      2.000000
 -0.000004 -0.064077  0.029408      2.000000
  0.027746  0.080098  0.029407      2.000000
 -0.027746 -0.080098  0.029408      2.000000
  0.055488  0.096118  0.029406      2.000000
 -0.055489 -0.096118  0.029408      2.000000
  0.083231  0.112139  0.029406      2.000000
 -0.083231 -0.112139  0.029408      2.000000
  0.110973  0.128160  0.029406      2.000000
 -0.110974 -0.128160  0.029409      2.000000
 -0.110967 -0.000006  0.029408      2.000000
  0.110967  0.000006  0.029406      2.000000
 -0.083225  0.016015  0.029408      2.000000
  0.083224 -0.016015  0.029407      2.000000
 -0.055482  0.032035  0.029408      2.000000
  0.055482 -0.032036  0.029407      2.000000
 -0.027739  0.048056  0.029407      2.000000
  0.027739 -0.048056  0.029407      2.000000
  0.000005  0.096115  0.029407      2.000000
 -0.000005 -0.096116  0.029408      2.000000
  0.027747  0.112136  0.029407      2.000000
 -0.027748 -0.112136  0.029408      2.000000
  0.055490  0.128157  0.029406      2.000000
 -0.055490 -0.128157  0.029408      2.000000
  0.083233  0.144177  0.029406      2.000000
 -0.083233 -0.144178  0.029409      2.000000
  0.110975  0.160198  0.029406      2.000000
 -0.110976 -0.160198  0.029409      2.000000
 -0.110965  0.032032  0.029408      2.000000
  0.110965 -0.032033  0.029407      2.000000
 -0.083223  0.048053  0.029408      2.000000
  0.083222 -0.048053  0.029407      2.000000
 -0.055480  0.064074  0.029407      2.000000
  0.055480 -0.064074  0.029407      2.000000
 -0.027738  0.080095  0.029407      2.000000
  0.027737 -0.080095  0.029407      2.000000
  0.000007  0.128154  0.029407      2.000000
 -0.000007 -0.128154  0.029408      2.000000
  0.027749  0.144175  0.029407      2.000000
 -0.027750 -0.144175  0.029408      2.000000
  0.055492  0.160195  0.029406      2.000000
 -0.055492 -0.160195  0.029408      2.000000
  0.083234  0.176216  0.029406      2.000000
 -0.083235 -0.176216  0.029409      2.000000
  0.110977  0.192237  0.029406      2.000000
 -0.110977 -0.192237  0.029409      2.000000
 -0.110964  0.064071  0.029408      2.000000
  0.110963 -0.064071  0.029407      2.000000
 -0.083221  0.080092  0.029408      2.000000
  0.083221 -0.080092  0.029407      2.000000
 -0.055479  0.096112  0.029407      2.000000
  0.055478 -0.096113  0.029407      2.000000
 -0.027736  0.112133  0.029407      2.000000
  0.027736 -0.112133  0.029408      2.000000
 -0.000000 -0.000000  0.058815      2.000000
  0.027742  0.016020  0.058814      2.000000
 -0.027743 -0.016021  0.058815      2.000000
  0.055485  0.032041  0.058814      2.000000
 -0.055486 -0.032042  0.058815      2.000000
  0.083227  0.048062  0.058814      2.000000
 -0.083228 -0.048062  0.058815      2.000000
  0.110970  0.064083  0.058813      2.000000
 -0.110971 -0.064083  0.058816      2.000000
  0.000001  0.032038  0.058814      2.000000
 -0.000002 -0.032039  0.058815      2.000000
  0.027744  0.048059  0.058814      2.000000
 -0.027745 -0.048059  0.058815      2.000000
  0.055486  0.064080  0.058814      2.000000
 -0.055487 -0.064080  0.058815      2.000000
  0.083229  0.080100  0.058814      2.000000
 -0.083230 -0.080101  0.058816      2.000000
  0.110972  0.096121  0.058813      2.000000
 -0.110972 -0.096122  0.058816      2.000000
 -0.110969 -0.032045  0.058816      2.000000
  0.110968  0.032044  0.058814      2.000000
 -0.083226 -0.016024  0.058815      2.000000
  0.083226  0.016023  0.058814      2.000000
 -0.055484 -0.000003  0.058815      2.000000
  0.055483  0.000003  0.058814      2.000000
 -0.027741  0.016018  0.058815      2.000000
  0.027740 -0.016018  0.058814      2.000000
  0.000003  0.064077  0.058814      2.000000
 -0.000004 -0.064077  0.058815      2.000000
  0.027746  0.080097  0.058814      2.000000
 -0.027746 -0.080098  0.058815      2.000000
  0.055488  0.096118  0.058814      2.000000
 -0.055489 -0.096119  0.058815      2.000000
  0.083231  0.112139  0.058814      2.000000
 -0.083232 -0.112139  0.058816      2.000000
  0.110973  0.128160  0.058813      2.000000
 -0.110974 -0.128160  0.058816      2.000000
 -0.110967 -0.000006  0.058815      2.000000
  0.110966  0.000006  0.058814      2.000000
 -0.083225  0.016015  0.058815      2.000000
  0.083224 -0.016015  0.058814      2.000000
 -0.055482  0.032035  0.058815      2.000000
  0.055481 -0.032036  0.058814      2.000000
 -0.027740  0.048056  0.058815      2.000000
  0.027739 -0.048056  0.058815      2.000000
  0.000005  0.096115  0.058814      2.000000
 -0.000006 -0.096116  0.058815      2.000000
  0.027747  0.112136  0.058814      2.000000
 -0.027748 -0.112136  0.058815      2.000000
  0.055490  0.128157  0.058814      2.000000
 -0.055491 -0.128157  0.058816      2.000000
  0.083232  0.144177  0.058813      2.000000
 -0.083233 -0.144178  0.058816      2.000000
  0.110975  0.160198  0.058813      2.000000
 -0.110976 -0.160199  0.058816      2.000000
 -0.110966  0.032032  0.058815      2.000000
  0.110965 -0.032033  0.058814      2.000000
 -0.083223  0.048053  0.058815      2.000000
  0.083222 -0.048054  0.058814      2.000000
 -0.055481  0.064074  0.058815      2.000000
  0.055480 -0.064074  0.058814      2.000000
 -0.027738  0.080094  0.058814      2.000000
  0.027737 -0.080095  0.058815      2.000000
  0.000006  0.128154  0.058814      2.000000
 -0.000007 -0.128154  0.058815      2.000000
  0.027749  0.144174  0.058814      2.000000
 -0.027750 -0.144175  0.058815      2.000000
  0.055492  0.160195  0.058814      2.000000
 -0.055492 -0.160196  0.058816      2.000000
  0.083234  0.176216  0.058813      2.000000
 -0.083235 -0.176216  0.058816      2.000000
  0.110977  0.192237  0.058813      2.000000
 -0.110978 -0.192237  0.058816      2.000000
 -0.110964  0.064071  0.058815      2.000000
  0.110963 -0.064071  0.058814      2.000000
 -0.083221  0.080092  0.058815      2.000000
  0.083220 -0.080092  0.058814      2.000000
 -0.055479  0.096112  0.058815      2.000000
  0.055478 -0.096113  0.058815      2.000000
 -0.027736  0.112133  0.058814      2.000000
  0.027735 -0.112133  0.058815      2.000000
 


--------------------------------------------------------------------------------------------------------




 Dimension of arrays:
   k-points           NKPTS =    203   k-points in BZ     NKDIM =    203   number of bands    NBANDS=     26
   number of dos      NEDOS =    301   number of ions     NIONS =      5
   non local maximal  LDIM  =      6   non local SUM 2l+1 LMDIM =     18
   total plane-waves  NPLWV =  48600
   max r-space proj   IRMAX =      1   max aug-charges    IRDMAX=  24742
   dimension x,y,z NGX =    30 NGY =   30 NGZ =   54
   dimension x,y,z NGXF=    60 NGYF=   60 NGZF=  108
   support grid    NGXF=    60 NGYF=   60 NGZF=  108
   ions per type =               1   2   2
   NGX,Y,Z   is equivalent  to a cutoff of  12.45, 12.45, 13.20 a.u.
   NGXF,Y,Z  is equivalent  to a cutoff of  24.90, 24.91, 26.40 a.u.

 SYSTEM =  unknown system                          
 POSCAR =  generated by phonopy                    

 Startparameter for this run:
   NWRITE =      2    write-flag & timer
   PREC   = accura    normal or accurate (medium, high low for compatibility)
   ISTART =      0    job   : 0-new  1-cont  2-samecut
   ICHARG =      2    charge: 1-file 2-atom 10-const
   ISPIN  =      2    spin polarized calculation?
   LNONCOLLINEAR =      F non collinear calculations
   LSORBIT =      F    spin-orbit coupling
   INIWAV =      1    electr: 0-lowe 1-rand  2-diag
   LASPH  =      T    aspherical Exc in radial PAW
 Electronic Relaxation 1
   ENCUT  =  520.0 eV  38.22 Ry    6.18 a.u.   7.45  7.45 12.65*2*pi/ulx,y,z
   ENINI  =  520.0     initial cutoff
   ENAUG  =  575.9 eV  augmentation charge cutoff
   NELM   =    200;   NELMIN=  6; NELMDL= -5     # of ELM steps 
   EDIFF  = 0.1E-05   stopping-criterion for ELM
   LREAL  =      F    real-space projection
   NLSPLINE    = F    spline interpolate recip. space projectors
   LCOMPAT=      F    compatible to vasp.4.4
   GGA_COMPAT  = T    GGA compatible to vasp.4.4-vasp.4.6
   LMAXPAW     = -100 max onsite density
   LMAXMIX     =    2 max onsite mixed and CHGCAR
   VOSKOWN=      0    Vosko Wilk Nusair interpolation
   ROPT   =    0.00000   0.00000   0.00000
 Ionic relaxation
   EDIFFG = -.3E-01   stopping-criterion for IOM
   NSW    =      0    number of steps for IOM
   NBLOCK =      1;   KBLOCK =      1    inner block; outer block 
   IBRION =     -1    ionic relax: 0-MD 1-quasi-New 2-CG
   NFREE  =      0    steps in history (QN), initial steepest desc. (CG)
   ISIF   =      2    stress and relaxation
   IWAVPR =     10    prediction:  0-non 1-charg 2-wave 3-comb
   ISYM   =      0    0-nonsym 1-usesym 2-fastsym
   LCORR  =      T    Harris-Foulkes like correction to forces

   POTIM  = 0.5000    time-step for ionic-motion
   TEIN   =    0.0    initial temperature
   TEBEG  =    0.0;   TEEND  =   0.0 temperature during run
   SMASS  =  -3.00    Nose mass-parameter (am)
   estimated Nose-frequenzy (Omega)   =  0.10E-29 period in steps = 0.13E+47 mass=  -0.367E-27a.u.
   SCALEE = 1.0000    scale energy and forces
   NPACO  =    256;   APACO  = 10.0  distance and # of slots for P.C.
   PSTRESS=    0.0 pullay stress

  Mass of Ions in am
   POMASS =  40.08 65.39 30.97
  Ionic Valenz
   ZVAL   =  10.00 12.00  5.00
  Atomic Wigner-Seitz radii
   RWIGS  =  -1.00 -1.00 -1.00
  virtual crystal weights 
   VCA    =   1.00  1.00  1.00
   NELECT =      44.0000    total number of electrons
   NUPDOWN=      -1.0000    fix difference up-down

 DOS related values:
   EMIN   =  10.00;   EMAX   =-10.00  energy-range for DOS
   EFERMI =   0.00
   ISMEAR =     0;   SIGMA  =   0.05  broadening in eV -4-tet -1-fermi 0-gaus

 Electronic relaxation 2 (details)
   IALGO  =     38    algorithm
   LDIAG  =      T    sub-space diagonalisation (order eigenvalues)
   LSUBROT=      F    optimize rotation matrix (better conditioning)
   TURBO    =      0    0=normal 1=particle mesh
   IRESTART =      0    0=no restart 2=restart with 2 vectors
   NREBOOT  =      0    no. of reboots
   NMIN     =      0    reboot dimension
   EREF     =   0.00    reference energy to select bands
   IMIX   =      4    mixing-type and parameters
     AMIX     =   0.40;   BMIX     =  1.00
     AMIX_MAG =   1.60;   BMIX_MAG =  1.00
     AMIN     =   0.10
     WC   =   100.;   INIMIX=   1;  MIXPRE=   1;  MAXMIX= -45

 Intra band minimization:
   WEIMIN = 0.0000     energy-eigenvalue tresh-hold
   EBREAK =  0.96E-08  absolut break condition
   DEPER  =   0.30     relativ break condition  

   TIME   =   0.40     timestep for ELM

  volume/ion in A,a.u.               =      18.89       127.50
  Fermi-wavevector in a.u.,A,eV,Ry     =   1.269008  2.398077 21.910554  1.610380
  Thomas-Fermi vector in A             =   2.402072
 
 Write flags
   LWAVE        =      F    write WAVECAR
   LDOWNSAMPLE  =      F    k-point downsampling of WAVECAR
   LCHARG       =      F    write CHGCAR
   LVTOT        =      F    write LOCPOT, total local potential
   LVHAR        =      F    write LOCPOT, Hartree potential only
   LELF         =      F    write electronic localiz. function (ELF)
   LORBIT       =     11    0 simple, 1 ext, 2 COOP (PROOUT), +10 PAW based schemes


 Dipole corrections
   LMONO  =      F    monopole corrections only (constant potential shift)
   LDIPOL =      F    correct potential (dipole corrections)
   IDIPOL =      0    1-x, 2-y, 3-z, 4-all directions 
   EPSILON=  1.0000000 bulk dielectric constant

 Exchange correlation treatment:
   GGA     =    --    GGA type
   LEXCH   =     8    internal setting for exchange type
   LIBXC   =     F    Libxc                    
   VOSKOWN =     0    Vosko Wilk Nusair interpolation
   LHFCALC =     F    Hartree Fock is set to
   LHFONE  =     F    Hartree Fock one center treatment
   AEXX    =    0.0000 exact exchange contribution

 Linear response parameters
   LEPSILON=     F    determine dielectric tensor
   LRPA    =     F    only Hartree local field effects (RPA)
   LNABLA  =     F    use nabla operator in PAW spheres
   LVEL    =     F    velocity operator in full k-point grid
   CSHIFT  =0.1000    complex shift for real part using Kramers Kronig
   OMEGAMAX=  -1.0    maximum frequency
   DEG_THRESHOLD= 0.2000000E-02 threshold for treating states as degnerate
   RTIME   =   -0.100 relaxation time in fs
  (WPLASMAI=    0.000 imaginary part of plasma frequency in eV, 0.658/RTIME)
   DFIELD  = 0.0000000 0.0000000 0.0000000 field for delta impulse in time
 
  Optional k-point grid parameters
   LKPOINTS_OPT  =     F    use optional k-point grid
   KPOINTS_OPT_MODE=     1    mode for optional k-point grid
 
 Orbital magnetization related:
   ORBITALMAG=     F  switch on orbital magnetization
   LCHIMAG   =     F  perturbation theory with respect to B field
   DQ        =  0.001000  dq finite difference perturbation B field
   LLRAUG    =     F  two centre corrections for induced B field



--------------------------------------------------------------------------------------------------------


 Static calculation
 charge density and potential will be updated during run
 spin polarized calculation
 Variant of blocked Davidson
 Davidson routine will perform the subspace rotation
 perform sub-space diagonalisation
    after iterative eigenvector-optimisation
 modified Broyden-mixing scheme, WC =      100.0
 initial mixing is a Kerker type mixing with AMIX =  0.4000 and BMIX =      1.0000
 Hartree-type preconditioning will be used
 using additional bands             4
 reciprocal scheme for non local part
 use partial core corrections
 calculate Harris-corrections to forces 
   (improved forces if not selfconsistent)
 use gradient corrections 
 use of overlap-Matrix (Vanderbilt PP)
 Gauss-broadening in eV      SIGMA  =   0.05


--------------------------------------------------------------------------------------------------------


  energy-cutoff  :      520.00
  volume of cell :       94.47
      direct lattice vectors                 reciprocal lattice vectors
     4.005197642 -0.000212520  0.000031215     0.249683220  0.144186399 -0.000002511
    -2.002782849  3.468158389 -0.000001936     0.000015300  0.288346301 -0.000001132
     0.000052989  0.000026694  6.801033585    -0.000001146 -0.000000580  0.147036474

  length of vectors
     4.005197648  4.004904712  6.801033585     0.288325212  0.288346301  0.147036474


 
 k-points in units of 2pi/SCALE and weight: Kpoints                                 
   0.00000000  0.00000000  0.00000000       0.002
   0.02774258  0.01602071 -0.00000028       0.005
   0.05548516  0.03204142 -0.00000056       0.005
   0.08322774  0.04806213 -0.00000084       0.005
   0.11097032  0.06408284 -0.00000112       0.005
   0.00000170  0.03203848 -0.00000013       0.005
   0.02774428  0.04805919 -0.00000040       0.005
   0.05548686  0.06407990 -0.00000068       0.005
   0.08322944  0.08010061 -0.00000096       0.005
   0.11097202  0.09612132 -0.00000124       0.005
  -0.11096862 -0.03204437  0.00000099       0.005
  -0.08322604 -0.01602366  0.00000071       0.005
  -0.05548346 -0.00000294  0.00000043       0.005
  -0.02774088  0.01601777  0.00000015       0.005
   0.00000340  0.06407696 -0.00000025       0.005
   0.02774598  0.08009767 -0.00000053       0.005
   0.05548856  0.09611838 -0.00000081       0.005
   0.08323114  0.11213909 -0.00000109       0.005
   0.11097372  0.12815980 -0.00000137       0.005
  -0.11096692 -0.00000589  0.00000086       0.005
  -0.08322434  0.01601482  0.00000059       0.005
  -0.05548176  0.03203553  0.00000031       0.005
  -0.02773918  0.04805624  0.00000003       0.005
   0.00000510  0.09611543 -0.00000038       0.005
   0.02774768  0.11213614 -0.00000066       0.005
   0.05549026  0.12815686 -0.00000094       0.005
   0.08323284  0.14417757 -0.00000121       0.005
   0.11097542  0.16019828 -0.00000149       0.005
  -0.11096522  0.03203259  0.00000074       0.005
  -0.08322264  0.04805330  0.00000046       0.005
  -0.05548006  0.06407401  0.00000018       0.005
  -0.02773748  0.08009472 -0.00000010       0.005
   0.00000680  0.12815391 -0.00000050       0.005
   0.02774938  0.14417462 -0.00000078       0.005
   0.05549196  0.16019533 -0.00000106       0.005
   0.08323454  0.17621604 -0.00000134       0.005
   0.11097712  0.19223676 -0.00000162       0.005
  -0.11096352  0.06407107  0.00000061       0.005
  -0.08322094  0.08009178  0.00000033       0.005
  -0.05547836  0.09611249  0.00000006       0.005
  -0.02773578  0.11213320 -0.00000022       0.005
  -0.00000023 -0.00000012  0.02940729       0.005
   0.02774235  0.01602060  0.02940702       0.005
  -0.02774281 -0.01602083  0.02940757       0.005
   0.05548493  0.03204131  0.02940674       0.005
  -0.05548539 -0.03204154  0.02940785       0.005
   0.08322751  0.04806202  0.02940646       0.005
  -0.08322797 -0.04806225  0.02940813       0.005
   0.11097009  0.06408273  0.02940618       0.005
  -0.11097055 -0.06408296  0.02940841       0.005
   0.00000147  0.03203836  0.02940717       0.005
  -0.00000193 -0.03203859  0.02940742       0.005
   0.02774405  0.04805907  0.02940689       0.005
  -0.02774451 -0.04805930  0.02940770       0.005
   0.05548663  0.06407978  0.02940661       0.005
  -0.05548709 -0.06408002  0.02940798       0.005
   0.08322921  0.08010049  0.02940633       0.005
  -0.08322967 -0.08010073  0.02940826       0.005
   0.11097179  0.09612121  0.02940605       0.005
  -0.11097225 -0.09612144  0.02940854       0.005
  -0.11096885 -0.03204448  0.02940829       0.005
   0.11096839  0.03204425  0.02940630       0.005
  -0.08322627 -0.01602377  0.02940801       0.005
   0.08322581  0.01602354  0.02940658       0.005
  -0.05548369 -0.00000306  0.02940773       0.005
   0.05548323  0.00000283  0.02940686       0.005
  -0.02774111  0.01601765  0.02940745       0.005
   0.02774065 -0.01601788  0.02940714       0.005
   0.00000317  0.06407684  0.02940704       0.005
  -0.00000363 -0.06407707  0.02940755       0.005
   0.02774575  0.08009755  0.02940676       0.005
  -0.02774621 -0.08009778  0.02940783       0.005
   0.05548833  0.09611826  0.02940649       0.005
  -0.05548879 -0.09611849  0.02940810       0.005
   0.08323091  0.11213897  0.02940621       0.005
  -0.08323137 -0.11213920  0.02940838       0.005
   0.11097349  0.12815968  0.02940593       0.005
  -0.11097395 -0.12815992  0.02940866       0.005
  -0.11096715 -0.00000600  0.02940816       0.005
   0.11096669  0.00000577  0.02940643       0.005
  -0.08322457  0.01601471  0.02940788       0.005
   0.08322411 -0.01601494  0.02940671       0.005
  -0.05548199  0.03203542  0.02940760       0.005
   0.05548153 -0.03203565  0.02940699       0.005
  -0.02773941  0.04805613  0.02940732       0.005
   0.02773895 -0.04805636  0.02940727       0.005
   0.00000487  0.09611532  0.02940692       0.005
  -0.00000533 -0.09611555  0.02940767       0.005
   0.02774745  0.11213603  0.02940664       0.005
  -0.02774791 -0.11213626  0.02940795       0.005
   0.05549003  0.12815674  0.02940636       0.005
  -0.05549049 -0.12815697  0.02940823       0.005
   0.08323261  0.14417745  0.02940608       0.005
  -0.08323307 -0.14417768  0.02940851       0.005
   0.11097519  0.16019816  0.02940580       0.005
  -0.11097565 -0.16019839  0.02940879       0.005
  -0.11096545  0.03203247  0.02940803       0.005
   0.11096499 -0.03203271  0.02940656       0.005
  -0.08322287  0.04805318  0.02940775       0.005
   0.08322241 -0.04805342  0.02940684       0.005
  -0.05548029  0.06407390  0.02940748       0.005
   0.05547983 -0.06407413  0.02940711       0.005
  -0.02773771  0.08009461  0.02940720       0.005
   0.02773725 -0.08009484  0.02940739       0.005
   0.00000657  0.12815380  0.02940679       0.005
  -0.00000703 -0.12815403  0.02940780       0.005
   0.02774915  0.14417451  0.02940651       0.005
  -0.02774961 -0.14417474  0.02940808       0.005
   0.05549173  0.16019522  0.02940623       0.005
  -0.05549219 -0.16019545  0.02940836       0.005
   0.08323431  0.17621593  0.02940595       0.005
  -0.08323477 -0.17621616  0.02940864       0.005
   0.11097689  0.19223664  0.02940568       0.005
  -0.11097735 -0.19223687  0.02940891       0.005
  -0.11096375  0.06407095  0.02940791       0.005
   0.11096329 -0.06407118  0.02940668       0.005
  -0.08322117  0.08009166  0.02940763       0.005
   0.08322071 -0.08009189  0.02940696       0.005
  -0.05547859  0.09611237  0.02940735       0.005
   0.05547813 -0.09611261  0.02940724       0.005
  -0.02773601  0.11213308  0.02940707       0.005
   0.02773555 -0.11213332  0.02940752       0.005
  -0.00000046 -0.00000023  0.05881459       0.005
   0.02774212  0.01602048  0.05881431       0.005
  -0.02774304 -0.01602094  0.05881487       0.005
   0.05548470  0.03204119  0.05881403       0.005
  -0.05548562 -0.03204165  0.05881515       0.005
   0.08322728  0.04806190  0.05881375       0.005
  -0.08322820 -0.04806236  0.05881543       0.005
   0.11096986  0.06408261  0.05881347       0.005
  -0.11097078 -0.06408308  0.05881571       0.005
   0.00000124  0.03203825  0.05881446       0.005
  -0.00000216 -0.03203871  0.05881472       0.005
   0.02774382  0.04805896  0.05881418       0.005
  -0.02774474 -0.04805942  0.05881499       0.005
   0.05548640  0.06407967  0.05881391       0.005
  -0.05548732 -0.06408013  0.05881527       0.005
   0.08322898  0.08010038  0.05881363       0.005
  -0.08322990 -0.08010084  0.05881555       0.005
   0.11097156  0.09612109  0.05881335       0.005
  -0.11097248 -0.09612155  0.05881583       0.005
  -0.11096908 -0.03204460  0.05881558       0.005
   0.11096816  0.03204413  0.05881360       0.005
  -0.08322650 -0.01602389  0.05881530       0.005
   0.08322558  0.01602342  0.05881388       0.005
  -0.05548392 -0.00000318  0.05881502       0.005
   0.05548300  0.00000271  0.05881416       0.005
  -0.02774134  0.01601753  0.05881474       0.005
   0.02774042 -0.01601800  0.05881444       0.005
   0.00000294  0.06407672  0.05881434       0.005
  -0.00000386 -0.06407719  0.05881484       0.005
   0.02774552  0.08009743  0.05881406       0.005
  -0.02774644 -0.08009790  0.05881512       0.005
   0.05548810  0.09611815  0.05881378       0.005
  -0.05548902 -0.09611861  0.05881540       0.005
   0.08323068  0.11213886  0.05881350       0.005
  -0.08323160 -0.11213932  0.05881568       0.005
   0.11097326  0.12815957  0.05881322       0.005
  -0.11097418 -0.12816003  0.05881596       0.005
  -0.11096738 -0.00000612  0.05881545       0.005
   0.11096646  0.00000566  0.05881373       0.005
  -0.08322480  0.01601459  0.05881518       0.005
   0.08322388 -0.01601505  0.05881400       0.005
  -0.05548222  0.03203530  0.05881490       0.005
   0.05548130 -0.03203577  0.05881428       0.005
  -0.02773964  0.04805601  0.05881462       0.005
   0.02773872 -0.04805648  0.05881456       0.005
   0.00000464  0.09611520  0.05881421       0.005
  -0.00000556 -0.09611567  0.05881497       0.005
   0.02774722  0.11213591  0.05881393       0.005
  -0.02774814 -0.11213638  0.05881525       0.005
   0.05548980  0.12815662  0.05881365       0.005
  -0.05549072 -0.12815709  0.05881553       0.005
   0.08323238  0.14417733  0.05881338       0.005
  -0.08323330 -0.14417780  0.05881580       0.005
   0.11097496  0.16019805  0.05881310       0.005
  -0.11097588 -0.16019851  0.05881608       0.005
  -0.11096568  0.03203236  0.05881533       0.005
   0.11096476 -0.03203282  0.05881385       0.005
  -0.08322310  0.04805307  0.05881505       0.005
   0.08322218 -0.04805353  0.05881413       0.005
  -0.05548052  0.06407378  0.05881477       0.005
   0.05547960 -0.06407424  0.05881441       0.005
  -0.02773794  0.08009449  0.05881449       0.005
   0.02773702 -0.08009495  0.05881469       0.005
   0.00000634  0.12815368  0.05881409       0.005
  -0.00000726 -0.12815414  0.05881509       0.005
   0.02774892  0.14417439  0.05881381       0.005
  -0.02774984 -0.14417485  0.05881537       0.005
   0.05549150  0.16019510  0.05881353       0.005
  -0.05549242 -0.16019557  0.05881565       0.005
   0.08323408  0.17621581  0.05881325       0.005
  -0.08323500 -0.17621628  0.05881593       0.005
   0.11097666  0.19223652  0.05881297       0.005
  -0.11097758 -0.19223699  0.05881621       0.005
  -0.11096398  0.06407084  0.05881520       0.005
   0.11096306 -0.06407130  0.05881398       0.005
  -0.08322140  0.08009155  0.05881492       0.005
   0.08322048 -0.08009201  0.05881426       0.005
  -0.05547882  0.09611226  0.05881464       0.005
   0.05547790 -0.09611272  0.05881453       0.005
  -0.02773624  0.11213297  0.05881437       0.005
   0.02773532 -0.11213343  0.05881481       0.005
 
 k-points in reciprocal lattice and weights: Kpoints                                 
   0.00000000  0.00000000  0.00000000       0.002
   0.11111111  0.00000000  0.00000000       0.005
   0.22222222  0.00000000  0.00000000       0.005
   0.33333333  0.00000000  0.00000000       0.005
   0.44444444  0.00000000  0.00000000       0.005
   0.00000000  0.11111111  0.00000000       0.005
   0.11111111  0.11111111  0.00000000       0.005
   0.22222222  0.11111111  0.00000000       0.005
   0.33333333  0.11111111  0.00000000       0.005
   0.44444444  0.11111111  0.00000000       0.005
  -0.44444444  0.11111111  0.00000000       0.005
  -0.33333333  0.11111111  0.00000000       0.005
  -0.22222222  0.11111111  0.00000000       0.005
  -0.11111111  0.11111111  0.00000000       0.005
   0.00000000  0.22222222  0.00000000       0.005
   0.11111111  0.22222222  0.00000000       0.005
   0.22222222  0.22222222  0.00000000       0.005
   0.33333333  0.22222222  0.00000000       0.005
   0.44444444  0.22222222  0.00000000       0.005
  -0.44444444  0.22222222  0.00000000       0.005
  -0.33333333  0.22222222  0.00000000       0.005
  -0.22222222  0.22222222  0.00000000       0.005
  -0.11111111  0.22222222  0.00000000       0.005
   0.00000000  0.33333333  0.00000000       0.005
   0.11111111  0.33333333  0.00000000       0.005
   0.22222222  0.33333333  0.00000000       0.005
   0.33333333  0.33333333  0.00000000       0.005
   0.44444444  0.33333333  0.00000000       0.005
  -0.44444444  0.33333333  0.00000000       0.005
  -0.33333333  0.33333333  0.00000000       0.005
  -0.22222222  0.33333333  0.00000000       0.005
  -0.11111111  0.33333333  0.00000000       0.005
   0.00000000  0.44444444  0.00000000       0.005
   0.11111111  0.44444444  0.00000000       0.005
   0.22222222  0.44444444  0.00000000       0.005
   0.33333333  0.44444444  0.00000000       0.005
   0.44444444  0.44444444  0.00000000       0.005
  -0.44444444  0.44444444  0.00000000       0.005
  -0.33333333  0.44444444  0.00000000       0.005
  -0.22222222  0.44444444  0.00000000       0.005
  -0.11111111  0.44444444  0.00000000       0.005
   0.00000000  0.00000000  0.20000000       0.005
   0.11111111  0.00000000  0.20000000       0.005
  -0.11111111  0.00000000  0.20000000       0.005
   0.22222222  0.00000000  0.20000000       0.005
  -0.22222222  0.00000000  0.20000000       0.005
   0.33333333  0.00000000  0.20000000       0.005
  -0.33333333  0.00000000  0.20000000       0.005
   0.44444444  0.00000000  0.20000000       0.005
  -0.44444444  0.00000000  0.20000000       0.005
   0.00000000  0.11111111  0.20000000       0.005
   0.00000000 -0.11111111  0.20000000       0.005
   0.11111111  0.11111111  0.20000000       0.005
  -0.11111111 -0.11111111  0.20000000       0.005
   0.22222222  0.11111111  0.20000000       0.005
  -0.22222222 -0.11111111  0.20000000       0.005
   0.33333333  0.11111111  0.20000000       0.005
  -0.33333333 -0.11111111  0.20000000       0.005
   0.44444444  0.11111111  0.20000000       0.005
  -0.44444444 -0.11111111  0.20000000       0.005
  -0.44444444  0.11111111  0.20000000       0.005
   0.44444444 -0.11111111  0.20000000       0.005
  -0.33333333  0.11111111  0.20000000       0.005
   0.33333333 -0.11111111  0.20000000       0.005
  -0.22222222  0.11111111  0.20000000       0.005
   0.22222222 -0.11111111  0.20000000       0.005
  -0.11111111  0.11111111  0.20000000       0.005
   0.11111111 -0.11111111  0.20000000       0.005
   0.00000000  0.22222222  0.20000000       0.005
   0.00000000 -0.22222222  0.20000000       0.005
   0.11111111  0.22222222  0.20000000       0.005
  -0.11111111 -0.22222222  0.20000000       0.005
   0.22222222  0.22222222  0.20000000       0.005
  -0.22222222 -0.22222222  0.20000000       0.005
   0.33333333  0.22222222  0.20000000       0.005
  -0.33333333 -0.22222222  0.20000000       0.005
   0.44444444  0.22222222  0.20000000       0.005
  -0.44444444 -0.22222222  0.20000000       0.005
  -0.44444444  0.22222222  0.20000000       0.005
   0.44444444 -0.22222222  0.20000000       0.005
  -0.33333333  0.22222222  0.20000000       0.005
   0.33333333 -0.22222222  0.20000000       0.005
  -0.22222222  0.22222222  0.20000000       0.005
   0.22222222 -0.22222222  0.20000000       0.005
  -0.11111111  0.22222222  0.20000000       0.005
   0.11111111 -0.22222222  0.20000000       0.005
   0.00000000  0.33333333  0.20000000       0.005
   0.00000000 -0.33333333  0.20000000       0.005
   0.11111111  0.33333333  0.20000000       0.005
  -0.11111111 -0.33333333  0.20000000       0.005
   0.22222222  0.33333333  0.20000000       0.005
  -0.22222222 -0.33333333  0.20000000       0.005
   0.33333333  0.33333333  0.20000000       0.005
  -0.33333333 -0.33333333  0.20000000       0.005
   0.44444444  0.33333333  0.20000000       0.005
  -0.44444444 -0.33333333  0.20000000       0.005
  -0.44444444  0.33333333  0.20000000       0.005
   0.44444444 -0.33333333  0.20000000       0.005
  -0.33333333  0.33333333  0.20000000       0.005
   0.33333333 -0.33333333  0.20000000       0.005
  -0.22222222  0.33333333  0.20000000       0.005
   0.22222222 -0.33333333  0.20000000       0.005
  -0.11111111  0.33333333  0.20000000       0.005
   0.11111111 -0.33333333  0.20000000       0.005
   0.00000000  0.44444444  0.20000000       0.005
   0.00000000 -0.44444444  0.20000000       0.005
   0.11111111  0.44444444  0.20000000       0.005
  -0.11111111 -0.44444444  0.20000000       0.005
   0.22222222  0.44444444  0.20000000       0.005
  -0.22222222 -0.44444444  0.20000000       0.005
   0.33333333  0.44444444  0.20000000       0.005
  -0.33333333 -0.44444444  0.20000000       0.005
   0.44444444  0.44444444  0.20000000       0.005
  -0.44444444 -0.44444444  0.20000000       0.005
  -0.44444444  0.44444444  0.20000000       0.005
   0.44444444 -0.44444444  0.20000000       0.005
  -0.33333333  0.44444444  0.20000000       0.005
   0.33333333 -0.44444444  0.20000000       0.005
  -0.22222222  0.44444444  0.20000000       0.005
   0.22222222 -0.44444444  0.20000000       0.005
  -0.11111111  0.44444444  0.20000000       0.005
   0.11111111 -0.44444444  0.20000000       0.005
   0.00000000  0.00000000  0.40000000       0.005
   0.11111111  0.00000000  0.40000000       0.005
  -0.11111111  0.00000000  0.40000000       0.005
   0.22222222  0.00000000  0.40000000       0.005
  -0.22222222  0.00000000  0.40000000       0.005
   0.33333333  0.00000000  0.40000000       0.005
  -0.33333333  0.00000000  0.40000000       0.005
   0.44444444  0.00000000  0.40000000       0.005
  -0.44444444  0.00000000  0.40000000       0.005
   0.00000000  0.11111111  0.40000000       0.005
   0.00000000 -0.11111111  0.40000000       0.005
   0.11111111  0.11111111  0.40000000       0.005
  -0.11111111 -0.11111111  0.40000000       0.005
   0.22222222  0.11111111  0.40000000       0.005
  -0.22222222 -0.11111111  0.40000000       0.005
   0.33333333  0.11111111  0.40000000       0.005
  -0.33333333 -0.11111111  0.40000000       0.005
   0.44444444  0.11111111  0.40000000       0.005
  -0.44444444 -0.11111111  0.40000000       0.005
  -0.44444444  0.11111111  0.40000000       0.005
   0.44444444 -0.11111111  0.40000000       0.005
  -0.33333333  0.11111111  0.40000000       0.005
   0.33333333 -0.11111111  0.40000000       0.005
  -0.22222222  0.11111111  0.40000000       0.005
   0.22222222 -0.11111111  0.40000000       0.005
  -0.11111111  0.11111111  0.40000000       0.005
   0.11111111 -0.11111111  0.40000000       0.005
   0.00000000  0.22222222  0.40000000       0.005
   0.00000000 -0.22222222  0.40000000       0.005
   0.11111111  0.22222222  0.40000000       0.005
  -0.11111111 -0.22222222  0.40000000       0.005
   0.22222222  0.22222222  0.40000000       0.005
  -0.22222222 -0.22222222  0.40000000       0.005
   0.33333333  0.22222222  0.40000000       0.005
  -0.33333333 -0.22222222  0.40000000       0.005
   0.44444444  0.22222222  0.40000000       0.005
  -0.44444444 -0.22222222  0.40000000       0.005
  -0.44444444  0.22222222  0.40000000       0.005
   0.44444444 -0.22222222  0.40000000       0.005
  -0.33333333  0.22222222  0.40000000       0.005
   0.33333333 -0.22222222  0.40000000       0.005
  -0.22222222  0.22222222  0.40000000       0.005
   0.22222222 -0.22222222  0.40000000       0.005
  -0.11111111  0.22222222  0.40000000       0.005
   0.11111111 -0.22222222  0.40000000       0.005
   0.00000000  0.33333333  0.40000000       0.005
   0.00000000 -0.33333333  0.40000000       0.005
   0.11111111  0.33333333  0.40000000       0.005
  -0.11111111 -0.33333333  0.40000000       0.005
   0.22222222  0.33333333  0.40000000       0.005
  -0.22222222 -0.33333333  0.40000000       0.005
   0.33333333  0.33333333  0.40000000       0.005
  -0.33333333 -0.33333333  0.40000000       0.005
   0.44444444  0.33333333  0.40000000       0.005
  -0.44444444 -0.33333333  0.40000000       0.005
  -0.44444444  0.33333333  0.40000000       0.005
   0.44444444 -0.33333333  0.40000000       0.005
  -0.33333333  0.33333333  0.40000000       0.005
   0.33333333 -0.33333333  0.40000000       0.005
  -0.22222222  0.33333333  0.40000000       0.005
   0.22222222 -0.33333333  0.40000000       0.005
  -0.11111111  0.33333333  0.40000000       0.005
   0.11111111 -0.33333333  0.40000000       0.005
   0.00000000  0.44444444  0.40000000       0.005
   0.00000000 -0.44444444  0.40000000       0.005
   0.11111111  0.44444444  0.40000000       0.005
  -0.11111111 -0.44444444  0.40000000       0.005
   0.22222222  0.44444444  0.40000000       0.005
  -0.22222222 -0.44444444  0.40000000       0.005
   0.33333333  0.44444444  0.40000000       0.005
  -0.33333333 -0.44444444  0.40000000       0.005
   0.44444444  0.44444444  0.40000000       0.005
  -0.44444444 -0.44444444  0.40000000       0.005
  -0.44444444  0.44444444  0.40000000       0.005
   0.44444444 -0.44444444  0.40000000       0.005
  -0.33333333  0.44444444  0.40000000       0.005
   0.33333333 -0.44444444  0.40000000       0.005
  -0.22222222  0.44444444  0.40000000       0.005
   0.22222222 -0.44444444  0.40000000       0.005
  -0.11111111  0.44444444  0.40000000       0.005
   0.11111111 -0.44444444  0.40000000       0.005
 
 position of ions in fractional coordinates (direct lattice) 
   0.99999999  1.00000000  0.99999999
   0.33332757  0.66666394  0.63473599
   0.66667241  0.33333606  0.36673474
   0.33333526  0.66666830  0.26471446
   0.66666471  0.33333170  0.73528521
 
 position of ions in cartesian coordinates  (Angst):
   2.00246775  3.46797256  6.80106280
  -0.00010669  2.31204224  4.31686988
   2.00257445  1.15593036  2.49419545
  -0.00010421  2.31204748  1.80034107
   2.00257189  1.15592509  5.00071960
 


--------------------------------------------------------------------------------------------------------


 k-point   1 :   0.0000 0.0000 0.0000  plane waves:    2575
 k-point   2 :   0.1111 0.0000 0.0000  plane waves:    2561
 k-point   3 :   0.2222 0.0000 0.0000  plane waves:    2561
 k-point   4 :   0.3333 0.0000 0.0000  plane waves:    2565
 k-point   5 :   0.4444 0.0000 0.0000  plane waves:    2535
 k-point   6 :   0.0000 0.1111 0.0000  plane waves:    2561
 k-point   7 :   0.1111 0.1111 0.0000  plane waves:    2549
 k-point   8 :   0.2222 0.1111 0.0000  plane waves:    2550
 k-point   9 :   0.3333 0.1111 0.0000  plane waves:    2540
 k-point  10 :   0.4444 0.1111 0.0000  plane waves:    2533
 k-point  11 :  -0.4444 0.1111 0.0000  plane waves:    2540
 k-point  12 :  -0.3333 0.1111 0.0000  plane waves:    2548
 k-point  13 :  -0.2222 0.1111 0.0000  plane waves:    2549
 k-point  14 :  -0.1111 0.1111 0.0000  plane waves:    2561
 k-point  15 :   0.0000 0.2222 0.0000  plane waves:    2561
 k-point  16 :   0.1111 0.2222 0.0000  plane waves:    2550
 k-point  17 :   0.2222 0.2222 0.0000  plane waves:    2541
 k-point  18 :   0.3333 0.2222 0.0000  plane waves:    2530
 k-point  19 :   0.4444 0.2222 0.0000  plane waves:    2530
 k-point  20 :  -0.4444 0.2222 0.0000  plane waves:    2541
 k-point  21 :  -0.3333 0.2222 0.0000  plane waves:    2550
 k-point  22 :  -0.2222 0.2222 0.0000  plane waves:    2561
 k-point  23 :  -0.1111 0.2222 0.0000  plane waves:    2549
 k-point  24 :   0.0000 0.3333 0.0000  plane waves:    2565
 k-point  25 :   0.1111 0.3333 0.0000  plane waves:    2540
 k-point  26 :   0.2222 0.3333 0.0000  plane waves:    2530
 k-point  27 :   0.3333 0.3333 0.0000  plane waves:    2516
 k-point  28 :   0.4444 0.3333 0.0000  plane waves:    2530
 k-point  29 :  -0.4444 0.3333 0.0000  plane waves:    2540
 k-point  30 :  -0.3333 0.3333 0.0000  plane waves:    2565
 k-point  31 :  -0.2222 0.3333 0.0000  plane waves:    2550
 k-point  32 :  -0.1111 0.3333 0.0000  plane waves:    2550
 k-point  33 :   0.0000 0.4444 0.0000  plane waves:    2533
 k-point  34 :   0.1111 0.4444 0.0000  plane waves:    2532
 k-point  35 :   0.2222 0.4444 0.0000  plane waves:    2530
 k-point  36 :   0.3333 0.4444 0.0000  plane waves:    2530
 k-point  37 :   0.4444 0.4444 0.0000  plane waves:    2533
 k-point  38 :  -0.4444 0.4444 0.0000  plane waves:    2535
 k-point  39 :  -0.3333 0.4444 0.0000  plane waves:    2540
 k-point  40 :  -0.2222 0.4444 0.0000  plane waves:    2541
 k-point  41 :  -0.1111 0.4444 0.0000  plane waves:    2540
 k-point  42 :   0.0000 0.0000 0.2000  plane waves:    2563
 k-point  43 :   0.1111 0.0000 0.2000  plane waves:    2551
 k-point  44 :  -0.1111 0.0000 0.2000  plane waves:    2551
 k-point  45 :   0.2222 0.0000 0.2000  plane waves:    2546
 k-point  46 :  -0.2222 0.0000 0.2000  plane waves:    2546
 k-point  47 :   0.3333 0.0000 0.2000  plane waves:    2545
 k-point  48 :  -0.3333 0.0000 0.2000  plane waves:    2545
 k-point  49 :   0.4444 0.0000 0.2000  plane waves:    2539
 k-point  50 :  -0.4444 0.0000 0.2000  plane waves:    2539
 k-point  51 :   0.0000 0.1111 0.2000  plane waves:    2551
 k-point  52 :   0.0000-0.1111 0.2000  plane waves:    2551
 k-point  53 :   0.1111 0.1111 0.2000  plane waves:    2555
 k-point  54 :  -0.1111-0.1111 0.2000  plane waves:    2555
 k-point  55 :   0.2222 0.1111 0.2000  plane waves:    2554
 k-point  56 :  -0.2222-0.1111 0.2000  plane waves:    2554
 k-point  57 :   0.3333 0.1111 0.2000  plane waves:    2537
 k-point  58 :  -0.3333-0.1111 0.2000  plane waves:    2537
 k-point  59 :   0.4444 0.1111 0.2000  plane waves:    2527
 k-point  60 :  -0.4444-0.1111 0.2000  plane waves:    2527
 k-point  61 :  -0.4444 0.1111 0.2000  plane waves:    2537
 k-point  62 :   0.4444-0.1111 0.2000  plane waves:    2537
 k-point  63 :  -0.3333 0.1111 0.2000  plane waves:    2554
 k-point  64 :   0.3333-0.1111 0.2000  plane waves:    2554
 k-point  65 :  -0.2222 0.1111 0.2000  plane waves:    2555
 k-point  66 :   0.2222-0.1111 0.2000  plane waves:    2555
 k-point  67 :  -0.1111 0.1111 0.2000  plane waves:    2551
 k-point  68 :   0.1111-0.1111 0.2000  plane waves:    2551
 k-point  69 :   0.0000 0.2222 0.2000  plane waves:    2546
 k-point  70 :   0.0000-0.2222 0.2000  plane waves:    2546
 k-point  71 :   0.1111 0.2222 0.2000  plane waves:    2554
 k-point  72 :  -0.1111-0.2222 0.2000  plane waves:    2554
 k-point  73 :   0.2222 0.2222 0.2000  plane waves:    2548
 k-point  74 :  -0.2222-0.2222 0.2000  plane waves:    2548
 k-point  75 :   0.3333 0.2222 0.2000  plane waves:    2537
 k-point  76 :  -0.3333-0.2222 0.2000  plane waves:    2537
 k-point  77 :   0.4444 0.2222 0.2000  plane waves:    2537
 k-point  78 :  -0.4444-0.2222 0.2000  plane waves:    2537
 k-point  79 :  -0.4444 0.2222 0.2000  plane waves:    2548
 k-point  80 :   0.4444-0.2222 0.2000  plane waves:    2548
 k-point  81 :  -0.3333 0.2222 0.2000  plane waves:    2554
 k-point  82 :   0.3333-0.2222 0.2000  plane waves:    2554
 k-point  83 :  -0.2222 0.2222 0.2000  plane waves:    2546
 k-point  84 :   0.2222-0.2222 0.2000  plane waves:    2546
 k-point  85 :  -0.1111 0.2222 0.2000  plane waves:    2555
 k-point  86 :   0.1111-0.2222 0.2000  plane waves:    2555
 k-point  87 :   0.0000 0.3333 0.2000  plane waves:    2545
 k-point  88 :   0.0000-0.3333 0.2000  plane waves:    2545
 k-point  89 :   0.1111 0.3333 0.2000  plane waves:    2537
 k-point  90 :  -0.1111-0.3333 0.2000  plane waves:    2537
 k-point  91 :   0.2222 0.3333 0.2000  plane waves:    2537
 k-point  92 :  -0.2222-0.3333 0.2000  plane waves:    2537
 k-point  93 :   0.3333 0.3333 0.2000  plane waves:    2533
 k-point  94 :  -0.3333-0.3333 0.2000  plane waves:    2533
 k-point  95 :   0.4444 0.3333 0.2000  plane waves:    2537
 k-point  96 :  -0.4444-0.3333 0.2000  plane waves:    2537
 k-point  97 :  -0.4444 0.3333 0.2000  plane waves:    2537
 k-point  98 :   0.4444-0.3333 0.2000  plane waves:    2537
 k-point  99 :  -0.3333 0.3333 0.2000  plane waves:    2546
 k-point 100 :   0.3333-0.3333 0.2000  plane waves:    2546
 k-point 101 :  -0.2222 0.3333 0.2000  plane waves:    2554
 k-point 102 :   0.2222-0.3333 0.2000  plane waves:    2554
 k-point 103 :  -0.1111 0.3333 0.2000  plane waves:    2554
 k-point 104 :   0.1111-0.3333 0.2000  plane waves:    2554
 k-point 105 :   0.0000 0.4444 0.2000  plane waves:    2539
 k-point 106 :   0.0000-0.4444 0.2000  plane waves:    2539
 k-point 107 :   0.1111 0.4444 0.2000  plane waves:    2527
 k-point 108 :  -0.1111-0.4444 0.2000  plane waves:    2527
 k-point 109 :   0.2222 0.4444 0.2000  plane waves:    2537
 k-point 110 :  -0.2222-0.4444 0.2000  plane waves:    2537
 k-point 111 :   0.3333 0.4444 0.2000  plane waves:    2537
 k-point 112 :  -0.3333-0.4444 0.2000  plane waves:    2537
 k-point 113 :   0.4444 0.4444 0.2000  plane waves:    2525
 k-point 114 :  -0.4444-0.4444 0.2000  plane waves:    2525
 k-point 115 :  -0.4444 0.4444 0.2000  plane waves:    2539
 k-point 116 :   0.4444-0.4444 0.2000  plane waves:    2539
 k-point 117 :  -0.3333 0.4444 0.2000  plane waves:    2537
 k-point 118 :   0.3333-0.4444 0.2000  plane waves:    2537
 k-point 119 :  -0.2222 0.4444 0.2000  plane waves:    2548
 k-point 120 :   0.2222-0.4444 0.2000  plane waves:    2548
 k-point 121 :  -0.1111 0.4444 0.2000  plane waves:    2537
 k-point 122 :   0.1111-0.4444 0.2000  plane waves:    2537
 k-point 123 :   0.0000 0.0000 0.4000  plane waves:    2534
 k-point 124 :   0.1111 0.0000 0.4000  plane waves:    2554
 k-point 125 :  -0.1111 0.0000 0.4000  plane waves:    2554
 k-point 126 :   0.2222 0.0000 0.4000  plane waves:    2550
 k-point 127 :  -0.2222 0.0000 0.4000  plane waves:    2550
 k-point 128 :   0.3333 0.0000 0.4000  plane waves:    2539
 k-point 129 :  -0.3333 0.0000 0.4000  plane waves:    2539
 k-point 130 :   0.4444 0.0000 0.4000  plane waves:    2532
 k-point 131 :  -0.4444 0.0000 0.4000  plane waves:    2532
 k-point 132 :   0.0000 0.1111 0.4000  plane waves:    2554
 k-point 133 :   0.0000-0.1111 0.4000  plane waves:    2554
 k-point 134 :   0.1111 0.1111 0.4000  plane waves:    2565
 k-point 135 :  -0.1111-0.1111 0.4000  plane waves:    2565
 k-point 136 :   0.2222 0.1111 0.4000  plane waves:    2550
 k-point 137 :  -0.2222-0.1111 0.4000  plane waves:    2550
 k-point 138 :   0.3333 0.1111 0.4000  plane waves:    2537
 k-point 139 :  -0.3333-0.1111 0.4000  plane waves:    2537
 k-point 140 :   0.4444 0.1111 0.4000  plane waves:    2525
 k-point 141 :  -0.4444-0.1111 0.4000  plane waves:    2525
 k-point 142 :  -0.4444 0.1111 0.4000  plane waves:    2538
 k-point 143 :   0.4444-0.1111 0.4000  plane waves:    2538
 k-point 144 :  -0.3333 0.1111 0.4000  plane waves:    2549
 k-point 145 :   0.3333-0.1111 0.4000  plane waves:    2549
 k-point 146 :  -0.2222 0.1111 0.4000  plane waves:    2565
 k-point 147 :   0.2222-0.1111 0.4000  plane waves:    2565
 k-point 148 :  -0.1111 0.1111 0.4000  plane waves:    2554
 k-point 149 :   0.1111-0.1111 0.4000  plane waves:    2554
 k-point 150 :   0.0000 0.2222 0.4000  plane waves:    2550
 k-point 151 :   0.0000-0.2222 0.4000  plane waves:    2550
 k-point 152 :   0.1111 0.2222 0.4000  plane waves:    2549
 k-point 153 :  -0.1111-0.2222 0.4000  plane waves:    2549
 k-point 154 :   0.2222 0.2222 0.4000  plane waves:    2533
 k-point 155 :  -0.2222-0.2222 0.4000  plane waves:    2533
 k-point 156 :   0.3333 0.2222 0.4000  plane waves:    2534
 k-point 157 :  -0.3333-0.2222 0.4000  plane waves:    2534
 k-point 158 :   0.4444 0.2222 0.4000  plane waves:    2534
 k-point 159 :  -0.4444-0.2222 0.4000  plane waves:    2534
 k-point 160 :  -0.4444 0.2222 0.4000  plane waves:    2533
 k-point 161 :   0.4444-0.2222 0.4000  plane waves:    2533
 k-point 162 :  -0.3333 0.2222 0.4000  plane waves:    2550
 k-point 163 :   0.3333-0.2222 0.4000  plane waves:    2550
 k-point 164 :  -0.2222 0.2222 0.4000  plane waves:    2550
 k-point 165 :   0.2222-0.2222 0.4000  plane waves:    2550
 k-point 166 :  -0.1111 0.2222 0.4000  plane waves:    2565
 k-point 167 :   0.1111-0.2222 0.4000  plane waves:    2565
 k-point 168 :   0.0000 0.3333 0.4000  plane waves:    2539
 k-point 169 :   0.0000-0.3333 0.4000  plane waves:    2539
 k-point 170 :   0.1111 0.3333 0.4000  plane waves:    2538
 k-point 171 :  -0.1111-0.3333 0.4000  plane waves:    2538
 k-point 172 :   0.2222 0.3333 0.4000  plane waves:    2534
 k-point 173 :  -0.2222-0.3333 0.4000  plane waves:    2534
 k-point 174 :   0.3333 0.3333 0.4000  plane waves:    2544
 k-point 175 :  -0.3333-0.3333 0.4000  plane waves:    2544
 k-point 176 :   0.4444 0.3333 0.4000  plane waves:    2534
 k-point 177 :  -0.4444-0.3333 0.4000  plane waves:    2534
 k-point 178 :  -0.4444 0.3333 0.4000  plane waves:    2537
 k-point 179 :   0.4444-0.3333 0.4000  plane waves:    2537
 k-point 180 :  -0.3333 0.3333 0.4000  plane waves:    2539
 k-point 181 :   0.3333-0.3333 0.4000  plane waves:    2539
 k-point 182 :  -0.2222 0.3333 0.4000  plane waves:    2550
 k-point 183 :   0.2222-0.3333 0.4000  plane waves:    2550
 k-point 184 :  -0.1111 0.3333 0.4000  plane waves:    2549
 k-point 185 :   0.1111-0.3333 0.4000  plane waves:    2549
 k-point 186 :   0.0000 0.4444 0.4000  plane waves:    2532
 k-point 187 :   0.0000-0.4444 0.4000  plane waves:    2532
 k-point 188 :   0.1111 0.4444 0.4000  plane waves:    2526
 k-point 189 :  -0.1111-0.4444 0.4000  plane waves:    2526
 k-point 190 :   0.2222 0.4444 0.4000  plane waves:    2534
 k-point 191 :  -0.2222-0.4444 0.4000  plane waves:    2534
 k-point 192 :   0.3333 0.4444 0.4000  plane waves:    2534
 k-point 193 :  -0.3333-0.4444 0.4000  plane waves:    2534
 k-point 194 :   0.4444 0.4444 0.4000  plane waves:    2526
 k-point 195 :  -0.4444-0.4444 0.4000  plane waves:    2526
 k-point 196 :  -0.4444 0.4444 0.4000  plane waves:    2534
[...]
      7      -3.5504      1.00000
      8      -3.4608      1.00000
      9      -3.3999      1.00000
     10      -3.3852      1.00000
     11      -3.3091      1.00000
     12      -3.2578      1.00000
     13      -3.2263      1.00000
     14      -3.0902      1.00000
     15      -3.0086      1.00000
     16      -2.8482      1.00000
     17      -1.3042      1.00000
     18      -0.7036      1.00000
     19       1.1091      1.00000
     20       1.3376      1.00000
     21       2.4424      1.00000
     22       2.9014      1.00000
     23       6.0128      0.00000
     24       6.7333      0.00000
     25       7.0723      0.00000
     26       7.8508      0.00000

 k-point   200 :      -0.2222    0.4444    0.4000
  band No.  band energies     occupation 
      1     -38.3851      1.00000
      2     -18.5579      1.00000
      3     -18.5375      1.00000
      4     -18.5090      1.00000
      5      -7.1166      1.00000
      6      -6.6253      1.00000
      7      -3.5226      1.00000
      8      -3.5162      1.00000
      9      -3.3965      1.00000
     10      -3.3895      1.00000
     11      -3.3097      1.00000
     12      -3.2702      1.00000
     13      -3.2227      1.00000
     14      -3.0709      1.00000
     15      -3.0358      1.00000
     16      -2.8458      1.00000
     17      -0.9800      1.00000
     18      -0.5468      1.00000
     19       0.8072      1.00000
     20       1.4775      1.00000
     21       1.9399      1.00000
     22       2.7115      1.00000
     23       6.4831      0.00000
     24       6.7625      0.00000
     25       7.8653      0.00000
     26       8.6089      0.00000

 k-point   201 :       0.2222   -0.4444    0.4000
  band No.  band energies     occupation 
      1     -38.3851      1.00000
      2     -18.5579      1.00000
      3     -18.5375      1.00000
      4     -18.5090      1.00000
      5      -7.1166      1.00000
      6      -6.6253      1.00000
      7      -3.5226      1.00000
      8      -3.5162      1.00000
      9      -3.3965      1.00000
     10      -3.3895      1.00000
     11      -3.3097      1.00000
     12      -3.2702      1.00000
     13      -3.2227      1.00000
     14      -3.0709      1.00000
     15      -3.0357      1.00000
     16      -2.8458      1.00000
     17      -0.9801      1.00000
     18      -0.5467      1.00000
     19       0.8072      1.00000
     20       1.4776      1.00000
     21       1.9398      1.00000
     22       2.7113      1.00000
     23       6.4831      0.00000
     24       6.7622      0.00000
     25       7.8653      0.00000
     26       8.6089      0.00000

 k-point   202 :      -0.1111    0.4444    0.4000
  band No.  band energies     occupation 
      1     -38.3849      1.00000
      2     -18.5686      1.00000
      3     -18.5365      1.00000
      4     -18.5014      1.00000
      5      -7.1032      1.00000
      6      -6.5799      1.00000
      7      -3.5505      1.00000
      8      -3.4608      1.00000
      9      -3.3998      1.00000
     10      -3.3851      1.00000
     11      -3.3090      1.00000
     12      -3.2579      1.00000
     13      -3.2263      1.00000
     14      -3.0901      1.00000
     15      -3.0086      1.00000
     16      -2.8481      1.00000
     17      -1.3037      1.00000
     18      -0.7033      1.00000
     19       1.1079      1.00000
     20       1.3377      1.00000
     21       2.4412      1.00000
     22       2.9015      1.00000
     23       6.0131      0.00000
     24       6.7326      0.00000
     25       7.0708      0.00000
     26       7.8491      0.00000

 k-point   203 :       0.1111   -0.4444    0.4000
  band No.  band energies     occupation 
      1     -38.3849      1.00000
      2     -18.5686      1.00000
      3     -18.5365      1.00000
      4     -18.5014      1.00000
      5      -7.0727      1.00000
      6      -6.6212      1.00000
      7      -3.5598      1.00000
      8      -3.4621      1.00000
      9      -3.3983      1.00000
     10      -3.3860      1.00000
     11      -3.3092      1.00000
     12      -3.2570      1.00000
     13      -3.2220      1.00000
     14      -3.0900      1.00000
     15      -3.0098      1.00000
     16      -2.8394      1.00000
     17      -1.2650      1.00000
     18      -0.6541      1.00000
     19       1.1510      1.00000
     20       1.3011      1.00000
     21       2.3977      1.00000
     22       2.6400      1.00000
     23       6.1198      0.00000
     24       6.8506      0.00000
     25       7.3888      0.00000
     26       7.7012      0.00000


--------------------------------------------------------------------------------------------------------


 soft charge-density along one line, spin component            1
         0         1         2         3         4         5         6         7         8         9
 total charge-density along one line
 
 soft charge-density along one line, spin component            2
         0         1         2         3         4         5         6         7         8         9
 total charge-density along one line
 
 pseudopotential strength for first ion, spin component:            1
-18.401  -5.672   0.000   0.000  -0.000   0.000  -0.000  -0.000
 -5.672  -1.107  -0.000   0.000   0.000  -0.000   0.000   0.000
  0.000  -0.000 -20.065   0.000  -0.000   7.004  -0.000   0.000
  0.000   0.000   0.000 -20.067  -0.000  -0.000   7.007   0.000
 -0.000   0.000  -0.000  -0.000 -20.065   0.000   0.000   7.004
  0.000  -0.000   7.004  -0.000   0.000   8.544  -0.000  -0.000
 -0.000   0.000  -0.000   7.007   0.000  -0.000   8.543   0.000
 -0.000   0.000   0.000   0.000   7.004  -0.000   0.000   8.544
 -0.000  -0.000  -0.000  -0.000  -0.000   0.000  -0.000   0.000
  0.000  -0.000   0.000   0.000  -0.000  -0.000  -0.000  -0.000
 -0.002  -0.000   0.000   0.000  -0.000   0.000  -0.000  -0.000
 -0.000   0.000  -0.000  -0.000   0.000  -0.000   0.000  -0.000
  0.000   0.000  -0.000  -0.000   0.000   0.000   0.000  -0.000
 -0.000  -0.000  -0.000  -0.000  -0.000   0.000   0.000   0.000
  0.000  -0.000   0.000   0.000  -0.000  -0.000  -0.000   0.000
 -0.002  -0.000   0.000   0.000  -0.000   0.000  -0.000  -0.000
 -0.000   0.000  -0.000  -0.000   0.000   0.000   0.000  -0.000
  0.000   0.000  -0.000  -0.000   0.000   0.000   0.000  -0.000
 pseudopotential strength for first ion, spin component:            2
-18.401  -5.672   0.000   0.000  -0.000   0.000  -0.000  -0.000
 -5.672  -1.107  -0.000   0.000   0.000  -0.000   0.000   0.000
  0.000  -0.000 -20.065   0.000  -0.000   7.004  -0.000   0.000
  0.000   0.000   0.000 -20.067  -0.000  -0.000   7.007   0.000
 -0.000   0.000  -0.000  -0.000 -20.065   0.000   0.000   7.004
  0.000  -0.000   7.004  -0.000   0.000   8.544  -0.000  -0.000
 -0.000   0.000  -0.000   7.007   0.000  -0.000   8.543   0.000
 -0.000   0.000   0.000   0.000   7.004  -0.000   0.000   8.544
 -0.000  -0.000  -0.000  -0.000  -0.000   0.000  -0.000   0.000
  0.000  -0.000   0.000   0.000  -0.000  -0.000  -0.000  -0.000
 -0.002  -0.000   0.000   0.000  -0.000   0.000  -0.000  -0.000
 -0.000   0.000  -0.000  -0.000   0.000  -0.000   0.000  -0.000
  0.000   0.000  -0.000  -0.000   0.000   0.000   0.000  -0.000
 -0.000  -0.000  -0.000  -0.000  -0.000   0.000   0.000   0.000
  0.000  -0.000   0.000   0.000  -0.000  -0.000  -0.000   0.000
 -0.002  -0.000   0.000   0.000  -0.000   0.000  -0.000  -0.000
 -0.000   0.000  -0.000  -0.000   0.000   0.000   0.000  -0.000
  0.000   0.000  -0.000  -0.000   0.000   0.000   0.000  -0.000
 total augmentation occupancy for first ion, spin component:            1
  2.004   0.016  -0.000  -0.000   0.000   0.000  -0.000   0.000  -0.000  -0.000  -0.000   0.000   0.000   0.000   0.000   0.000
  0.016   0.484   0.000  -0.000   0.000   0.000   0.000  -0.000   0.000   0.000  -0.001  -0.000  -0.000  -0.000  -0.000  -0.004
 -0.000   0.000   2.006  -0.000  -0.000   0.004  -0.000  -0.000  -0.000  -0.000   0.000   0.000   0.000   0.000   0.000  -0.000
 -0.000  -0.000  -0.000   2.006   0.000  -0.000   0.004   0.000   0.000   0.000  -0.000  -0.000   0.000  -0.000  -0.000   0.000
  0.000   0.000  -0.000   0.000   2.006  -0.000   0.000   0.004   0.000   0.000  -0.000  -0.000   0.000   0.000  -0.000   0.000
  0.000   0.000   0.004  -0.000  -0.000   0.026   0.000   0.000  -0.000  -0.000  -0.000   0.000  -0.000   0.000   0.000   0.000
 -0.000   0.000  -0.000   0.004   0.000   0.000   0.027  -0.000   0.000   0.000  -0.000  -0.000  -0.000  -0.000  -0.000   0.000
  0.000  -0.000  -0.000   0.000   0.004   0.000  -0.000   0.026  -0.000   0.000   0.000  -0.000  -0.000   0.000   0.000  -0.000
 -0.000   0.000  -0.000   0.000   0.000  -0.000   0.000  -0.000   0.187  -0.000  -0.000  -0.110   0.000  -0.085   0.000  -0.000
 -0.000   0.000  -0.000   0.000   0.000  -0.000   0.000   0.000  -0.000   0.285   0.000   0.000  -0.110   0.000  -0.137  -0.000
 -0.000  -0.001   0.000  -0.000  -0.000  -0.000  -0.000   0.000  -0.000   0.000   0.096  -0.000  -0.000   0.000  -0.000  -0.044
  0.000  -0.000   0.000  -0.000  -0.000   0.000  -0.000  -0.000  -0.110   0.000  -0.000   0.285  -0.000   0.051  -0.000   0.000
  0.000  -0.000   0.000   0.000   0.000  -0.000  -0.000  -0.000   0.000  -0.110  -0.000  -0.000   0.187  -0.000   0.051   0.000
  0.000  -0.000   0.000  -0.000   0.000   0.000  -0.000   0.000  -0.085   0.000   0.000   0.051  -0.000   0.040  -0.000   0.000
  0.000  -0.000   0.000  -0.000  -0.000   0.000  -0.000   0.000   0.000  -0.137  -0.000  -0.000   0.051  -0.000   0.068   0.000
  0.000  -0.004  -0.000   0.000   0.000   0.000   0.000  -0.000  -0.000  -0.000  -0.044   0.000   0.000   0.000   0.000   0.020
  0.000   0.000  -0.000   0.000   0.000   0.000   0.000   0.000   0.051  -0.000   0.000  -0.137   0.000  -0.025   0.000  -0.000
 -0.000   0.000   0.000  -0.000  -0.000   0.000  -0.000   0.000  -0.000   0.051   0.000   0.000  -0.086   0.000  -0.025  -0.000
 total augmentation occupancy for first ion, spin component:            2
 -0.000  -0.000   0.000  -0.000  -0.000  -0.000  -0.000  -0.000  -0.000  -0.000  -0.000  -0.000  -0.000   0.000   0.000   0.000
 -0.000   0.000   0.000  -0.000  -0.000  -0.000  -0.000  -0.000   0.000   0.000  -0.000   0.000  -0.000  -0.000  -0.000   0.000
  0.000   0.000  -0.000  -0.000  -0.000  -0.000  -0.000  -0.000  -0.000  -0.000   0.000  -0.000   0.000   0.000  -0.000  -0.000
 -0.000  -0.000  -0.000  -0.000   0.000  -0.000  -0.000   0.000   0.000  -0.000  -0.000  -0.000  -0.000  -0.000   0.000   0.000
 -0.000  -0.000  -0.000   0.000  -0.000  -0.000   0.000  -0.000   0.000  -0.000   0.000  -0.000  -0.000  -0.000   0.000  -0.000
 -0.000  -0.000  -0.000  -0.000  -0.000   0.000  -0.000  -0.000  -0.000  -0.000   0.000  -0.000  -0.000   0.000   0.000  -0.000
 -0.000  -0.000  -0.000  -0.000   0.000  -0.000   0.000   0.000   0.000  -0.000  -0.000  -0.000   0.000   0.000   0.000   0.000
 -0.000  -0.000  -0.000   0.000  -0.000  -0.000   0.000   0.000  -0.000  -0.000  -0.000  -0.000  -0.000   0.000   0.000   0.000
 -0.000   0.000  -0.000   0.000   0.000  -0.000   0.000  -0.000   0.000  -0.000   0.000   0.000   0.000  -0.000   0.000  -0.000
 -0.000   0.000  -0.000  -0.000  -0.000  -0.000  -0.000  -0.000  -0.000   0.000  -0.000   0.000   0.000   0.000  -0.000   0.000
 -0.000  -0.000   0.000  -0.000   0.000   0.000  -0.000  -0.000   0.000  -0.000   0.000  -0.000   0.000   0.000   0.000  -0.000
 -0.000   0.000  -0.000  -0.000  -0.000  -0.000  -0.000  -0.000   0.000   0.000  -0.000   0.000  -0.000  -0.000   0.000   0.000
 -0.000  -0.000   0.000  -0.000  -0.000  -0.000   0.000  -0.000   0.000   0.000   0.000  -0.000   0.000   0.000  -0.000  -0.000
  0.000  -0.000   0.000  -0.000  -0.000   0.000   0.000   0.000  -0.000   0.000   0.000  -0.000   0.000   0.000  -0.000   0.000
  0.000  -0.000  -0.000   0.000   0.000   0.000   0.000   0.000   0.000  -0.000   0.000   0.000  -0.000  -0.000  -0.000  -0.000
  0.000   0.000  -0.000   0.000  -0.000  -0.000   0.000   0.000  -0.000   0.000  -0.000   0.000  -0.000   0.000  -0.000   0.000
  0.000   0.000   0.000   0.000   0.000   0.000   0.000   0.000  -0.000  -0.000   0.000  -0.000   0.000   0.000  -0.000  -0.000
  0.000   0.000  -0.000   0.000   0.000   0.000  -0.000  -0.000   0.000  -0.000  -0.000  -0.000  -0.000  -0.000   0.000   0.000


------------------------ aborting loop because EDIFF is reached ----------------------------------------





 total charge

# of ion       s       p       d       tot
------------------------------------------
    1        2.028   5.855   0.254   8.137
    2        0.539   0.512   9.780  10.831
    3        0.539   0.511   9.780  10.830
    4        1.001   1.564   0.000   2.565
    5        1.000   1.566   0.000   2.566
--------------------------------------------------
tot          5.107  10.008  19.813  34.927



 magnetization (x)

# of ion       s       p       d       tot
------------------------------------------
    1       -0.000   0.000   0.000   0.000
    2       -0.000  -0.000  -0.000  -0.000
    3        0.000  -0.000   0.000   0.000
    4       -0.000  -0.000   0.000  -0.000
    5       -0.000  -0.000   0.000  -0.000
--------------------------------------------------
tot         -0.000  -0.000   0.000  -0.000
 
    CHARGE:  cpu time      1.3666: real time      1.3687
    FORLOC:  cpu time      0.0030: real time      0.0029
    FORNL :  cpu time      3.7267: real time      3.7310
    STRESS:  cpu time     51.0104: real time     49.2739
    FORCOR:  cpu time      0.0174: real time      0.0170
    FORHAR:  cpu time      0.0022: real time      0.0021
    MIXING:  cpu time      0.0100: real time      0.0101
    OFIELD:  cpu time      0.0000: real time      0.0000

  FORCE on cell =-STRESS in cart. coord.  units (eV):
  Direction    XX          YY          ZZ          XY          YZ          ZX
  --------------------------------------------------------------------------------------
  Alpha Z   200.67494   200.67494   200.67494
  Ewald    -996.87369  -996.75562 -1115.20725     0.05338    -0.00829    -0.00682
  Hartree   557.84439   557.90528   436.02817     0.02466    -0.02220     0.00945
  E(xc)    -240.43105  -240.43103  -240.53531    -0.00018     0.00003    -0.00003
  Local       2.71262     2.53659   242.05536    -0.07613     0.02981    -0.00219
  n-local    11.38419    11.38637    10.95520     0.00108     0.00152    -0.00117
  augment   100.95602   100.95795   100.93120     0.00152    -0.00040    -0.00003
  Kinetic   363.86746   363.87718   365.24482     0.00299    -0.00004    -0.00058
  Fock        0.00000     0.00000     0.00000     0.00000     0.00000     0.00000
  -------------------------------------------------------------------------------------
  Total       0.13488     0.15167     0.14713     0.00732     0.00042    -0.00137
  in kB       2.28756     2.57240     2.49539     0.12419     0.00716    -0.02325
  external pressure =        2.45 kB  Pullay stress =        0.00 kB


 VOLUME and BASIS-vectors are now :
 -----------------------------------------------------------------------------
  energy-cutoff  :      520.00
  volume of cell :       94.47
      direct lattice vectors                 reciprocal lattice vectors
     4.005197642 -0.000212520  0.000031215     0.249683220  0.144186399 -0.000002511
    -2.002782849  3.468158389 -0.000001936     0.000015300  0.288346301 -0.000001132
     0.000052989  0.000026694  6.801033585    -0.000001146 -0.000000580  0.147036474

  length of vectors
     4.005197648  4.004904712  6.801033585     0.288325212  0.288346301  0.147036474


 FORCES acting on ions
    electron-ion (+dipol)            ewald-force                    non-local-force                 convergence-correction
 -----------------------------------------------------------------------------------------------
   -.535E-04 0.143E-03 -.181E+01   0.537E-04 -.145E-03 0.186E+01   -.798E-06 0.139E-05 -.304E-01   0.546E-06 0.360E-06 0.304E-04
   -.436E-01 0.589E-01 -.166E+03   0.424E-01 -.567E-01 0.169E+03   0.250E-02 -.277E-02 -.219E+01   0.252E-06 -.364E-07 0.251E-03
   0.435E-01 -.587E-01 0.169E+03   -.422E-01 0.566E-01 -.171E+03   -.322E-02 0.351E-02 0.226E+01   -.570E-06 -.122E-06 -.308E-03
   -.227E-01 0.290E-01 0.128E+03   0.224E-01 -.285E-01 -.132E+03   0.668E-03 -.848E-03 0.304E+01   0.343E-07 -.328E-08 -.148E-03
   0.228E-01 -.292E-01 -.129E+03   -.226E-01 0.288E-01 0.132E+03   -.686E-03 0.869E-03 -.299E+01   -.311E-07 -.820E-07 0.143E-03
 -----------------------------------------------------------------------------------------------
   0.104E-03 -.120E-03 -.786E-01   -.215E-15 0.330E-15 -.284E-13   -.742E-03 0.757E-03 0.935E-01   0.231E-06 0.117E-06 -.323E-04
 
 
 POSITION                                       TOTAL-FORCE (eV/Angst)
 -----------------------------------------------------------------------------------
      2.00247      3.46797      6.80106         0.000128     -0.000128      0.020273
     -0.00011      2.31204      4.31687         0.001299     -0.000821     -0.023009
      2.00257      1.15593      2.49420        -0.001651      0.001178     -0.027756
     -0.00010      2.31205      1.80034         0.000572     -0.000580     -0.006602
      2.00257      1.15593      5.00072        -0.000347      0.000352      0.037094
 -----------------------------------------------------------------------------------
    total drift:                               -0.000638      0.000637      0.014936


--------------------------------------------------------------------------------------------------------



  FREE ENERGIE OF THE ION-ELECTRON SYSTEM (eV)
  ---------------------------------------------------
  free  energy   TOTEN  =       -61.42616988 eV

  energy  without entropy=      -61.42616988  energy(sigma->0) =      -61.42616988
 


--------------------------------------------------------------------------------------------------------


    POTLOK:  cpu time      4.6746: real time      4.6836


--------------------------------------------------------------------------------------------------------


     LOOP+:  cpu time    568.6943: real time    565.7449
    4ORBIT:  cpu time      0.0000: real time      0.0000



 total charge

# of ion       s       p       d       tot
------------------------------------------
    1        2.028   5.855   0.254   8.137
    2        0.539   0.512   9.780  10.831
    3        0.539   0.511   9.780  10.830
    4        1.001   1.564   0.000   2.565
    5        1.000   1.566   0.000   2.566
--------------------------------------------------
tot          5.107  10.008  19.813  34.927



 magnetization (x)

# of ion       s       p       d       tot
------------------------------------------
    1       -0.000   0.000   0.000   0.000
    2       -0.000  -0.000  -0.000  -0.000
    3        0.000  -0.000   0.000   0.000
    4       -0.000  -0.000   0.000  -0.000
    5       -0.000  -0.000   0.000  -0.000
--------------------------------------------------
tot         -0.000  -0.000   0.000  -0.000
 

 total amount of memory used by VASP MPI-rank0   764478. kBytes
=======================================================================

   base      :      30000. kBytes
   nonl-proj :     226023. kBytes
   fftplans  :      13476. kBytes
   grid      :      48095. kBytes
   one-center:        155. kBytes
   wavefun   :     446729. kBytes
 
  
  
 General timing and accounting informations for this job:
 ========================================================
  
                  Total CPU time used (sec):      577.273
                            User time (sec):      556.282
                          System time (sec):       20.991
                         Elapsed time (sec):      578.558
  
                   Maximum memory used (kb):     2771004.
                   Average memory used (kb):          N/A
  
                          Minor page faults:       564717
                          Major page faults:            3
                 Voluntary context switches:       522546
