 vasp.6.1.2 22Jul20 (build Apr 14 2021 21:39:43) complex                        
  
 executed on             LinuxIFC date 2021.08.21  13:25:57
 running on   64 total cores
 distrk:  each k-point on   64 cores,    1 groups
 distr:  one band on NCORE=   4 cores,   16 groups


--------------------------------------------------------------------------------------------------------


 INCAR:
 POTCAR:    PAW_PBE Zn 06Sep2000                  
 POTCAR:    PAW_PBE Ca_sv 06Sep2000               
 POTCAR:    PAW_PBE N 08Apr2002                   
 POTCAR:    PAW_PBE Zn 06Sep2000                  
   SHA256 =  501fddbd8274dd8e9725d4f3de27861d7f1e553a7e18441bc79fed8f346e7f23 Zn/POTCAR             
   COPYR  = (c) Copyright 06Sep2000 Georg Kresse                                                    
   COPYR  = This file is part of the software VASP. Any use, copying, and all other rights are regul
   COPYR  = If you do not have a valid VASP license, you may not use, copy or distribute this file. 
   VRHFIN =Zn: d10 p2                                                                               
   LEXCH  = PE                                                                                      
   EATOM  =  1748.8345 eV,  128.5357 Ry                                                             
                                                                                                    
   TITEL  = PAW_PBE Zn 06Sep2000                                                                    
   LULTRA =        F    use ultrasoft PP ?                                                          
   IUNSCR =        1    unscreen: 0-lin 1-nonlin 2-no                                               
   RPACOR =    2.000    partial core radius                                                         
   POMASS =   65.390; ZVAL   =   12.000    mass and valenz                                          
   RCORE  =    2.300    outmost cutoff radius                                                       
   RWIGS  =    2.400; RWIGS  =    1.270    wigner-seitz radius (au A)                               
   ENMAX  =  276.723; ENMIN  =  207.542 eV                                                          
   RCLOC  =    1.828    cutoff for local pot                                                        
   LCOR   =        T    correct aug charges                                                         
   LPAW   =        T    paw PP                                                                      
   EAUG   =  575.892                                                                                
   DEXC   =    0.000                                                                                
   RMAX   =    2.347    core radius for proj-oper                                                   
   RAUG   =    1.300    factor for augmentation sphere                                              
   RDEP   =    2.324    radius for radial grids                                                     
   RDEPT  =    1.788    core radius for aug-charge                                                  
                                                                                                    
   Atomic configuration                                                                             
    9 entries                                                                                       
     n  l   j            E        occ.                                                              
     1  0  0.50     -9524.6913   2.0000                                                             
     2  0  0.50     -1158.1882   2.0000                                                             
     2  1  1.50     -1003.8506   6.0000                                                             
     3  0  0.50      -129.2194   2.0000                                                             
     3  1  1.50       -83.3890   6.0000                                                             
     3  2  2.50       -10.1410  10.0000                                                             
     4  0  0.50        -5.9785   2.0000                                                             
     4  1  0.50        -4.0817   0.0000                                                             
     4  3  2.50        -1.3606   0.0000                                                             
   Description                                                                                      
     l       E           TYP  RCUT    TYP  RCUT                                                     
     2    -10.1410010     23  2.300                                                                 
     2    -11.5015836     23  2.300                                                                 
     0     -5.9785163     23  2.300                                                                 
     0      1.1858015     23  2.300                                                                 
     1     -2.7211652     23  2.300                                                                 
     1     13.2444212     23  2.300                                                                 
  local pseudopotential read in
  partial core-charges read in
  partial kinetic energy density read in
  atomic valenz-charges read in
  non local Contribution for L=           2  read in
    real space projection operators read in
  non local Contribution for L=           2  read in
    real space projection operators read in
  non local Contribution for L=           0  read in
    real space projection operators read in
  non local Contribution for L=           0  read in
    real space projection operators read in
  non local Contribution for L=           1  read in
    real space projection operators read in
  non local Contribution for L=           1  read in
    real space projection operators read in
    PAW grid and wavefunctions read in
 
   number of l-projection  operators is LMAX  =           6
   number of lm-projection operators is LMMAX =          18
 
 POTCAR:    PAW_PBE Ca_sv 06Sep2000               
   SHA256 =  a47365830e737f14e0e6c5cf1ed81b94e081eecf0a33df105380881bc9da05d5 Ca_sv/POTCAR          
   COPYR  = (c) Copyright 06Sep2000 Georg Kresse                                                    
   COPYR  = This file is part of the software VASP. Any use, copying, and all other rights are regul
   COPYR  = If you do not have a valid VASP license, you may not use, copy or distribute this file. 
   VRHFIN =Ca: 3s3p4s                                                                               
   LEXCH  = PE                                                                                      
   EATOM  =  1006.0909 eV,   73.9456 Ry                                                             
                                                                                                    
   TITEL  = PAW_PBE Ca_sv 06Sep2000                                                                 
   LULTRA =        F    use ultrasoft PP ?                                                          
   IUNSCR =        1    unscreen: 0-lin 1-nonlin 2-no                                               
   RPACOR =    2.000    partial core radius                                                         
   POMASS =   40.078; ZVAL   =   10.000    mass and valenz                                          
   RCORE  =    2.300    outmost cutoff radius                                                       
   RWIGS  =    2.500; RWIGS  =    1.323    wigner-seitz radius (au A)                               
   ENMAX  =  266.622; ENMIN  =  199.967 eV                                                          
   RCLOC  =    1.808    cutoff for local pot                                                        
   LCOR   =        T    correct aug charges                                                         
   LPAW   =        T    paw PP                                                                      
   EAUG   =  420.852                                                                                
   RMAX   =    2.359    core radius for proj-oper                                                   
   RAUG   =    1.300    factor for augmentation sphere                                              
   RDEP   =    2.392    radius for radial grids                                                     
   RDEPT  =    1.987    core radius for aug-charge                                                  
                                                                                                    
   Atomic configuration                                                                             
    7 entries                                                                                       
     n  l   j            E        occ.                                                              
     1  0  0.50     -3949.1705   2.0000                                                             
     2  0  0.50      -414.3434   2.0000                                                             
     2  1  1.50      -334.7047   6.0000                                                             
     3  0  0.50       -47.0896   2.0000                                                             
     4  0  0.50        -3.7663   2.0000                                                             
     3  1  1.50       -28.0061   6.0000                                                             
     3  2  1.50        -4.0817   0.0000                                                             
   Description                                                                                      
     l       E           TYP  RCUT    TYP  RCUT                                                     
     0    -47.0896403     23  2.300                                                                 
     0     -3.7663320     23  2.300                                                                 
     1    -28.0060855     23  2.300                                                                 
     1      6.8029130     23  2.300                                                                 
     2     -4.0817478     23  2.300                                                                 
     2      0.4464412     23  2.300                                                                 
  local pseudopotential read in
  partial core-charges read in
  partial kinetic energy density read in
  atomic valenz-charges read in
  non local Contribution for L=           0  read in
    real space projection operators read in
  non local Contribution for L=           0  read in
    real space projection operators read in
  non local Contribution for L=           1  read in
    real space projection operators read in
  non local Contribution for L=           1  read in
    real space projection operators read in
  non local Contribution for L=           2  read in
    real space projection operators read in
  non local Contribution for L=           2  read in
    real space projection operators read in
    PAW grid and wavefunctions read in
 
   number of l-projection  operators is LMAX  =           6
   number of lm-projection operators is LMMAX =          18
 
 POTCAR:    PAW_PBE N 08Apr2002                   
   SHA256 =  e053789ff3a61a86a1b75d8a110fcc91f86041011e7b0817c7c99e4e8a6349d7 N/POTCAR              
   COPYR  = (c) Copyright 08Apr2002 Georg Kresse                                                    
   COPYR  = This file is part of the software VASP. Any use, copying, and all other rights are regul
   COPYR  = If you do not have a valid VASP license, you may not use, copy or distribute this file. 
   VRHFIN =N: s2p3                                                                                  
   LEXCH  = PE                                                                                      
   EATOM  =   264.5486 eV,   19.4438 Ry                                                             
                                                                                                    
   TITEL  = PAW_PBE N 08Apr2002                                                                     
   LULTRA =        F    use ultrasoft PP ?                                                          
   IUNSCR =        1    unscreen: 0-lin 1-nonlin 2-no                                               
   RPACOR =    1.200    partial core radius                                                         
   POMASS =   14.001; ZVAL   =    5.000    mass and valenz                                          
   RCORE  =    1.500    outmost cutoff radius                                                       
   RWIGS  =    1.400; RWIGS  =    0.741    wigner-seitz radius (au A)                               
   ENMAX  =  400.000; ENMIN  =  300.000 eV                                                          
   ICORE  =        2    local potential                                                             
   LCOR   =        T    correct aug charges                                                         
   LPAW   =        T    paw PP                                                                      
   EAUG   =  627.112                                                                                
   DEXC   =    0.000                                                                                
   RMAX   =    1.529    core radius for proj-oper                                                   
   RAUG   =    1.300    factor for augmentation sphere                                              
   RDEP   =    1.514    radius for radial grids                                                     
   RDEPT  =    1.338    core radius for aug-charge                                                  
                                                                                                    
   Atomic configuration                                                                             
    4 entries                                                                                       
     n  l   j            E        occ.                                                              
     1  0  0.50      -384.7179   2.0000                                                             
     2  0  0.50       -18.5828   2.0000                                                             
     2  1  0.50        -7.0898   3.0000                                                             
     3  2  1.50        -6.8029   0.0000                                                             
   Description                                                                                      
     l       E           TYP  RCUT    TYP  RCUT                                                     
     0    -18.5828119     23  1.200                                                                 
     0    -13.5018863     23  1.200                                                                 
     1     -7.0897853     23  1.500                                                                 
     1      9.5240782     23  1.500                                                                 
     2     -6.8029130      7  1.500                                                                 
  local pseudopotential read in
  partial core-charges read in
  partial kinetic energy density read in
  atomic valenz-charges read in
  non local Contribution for L=           0  read in
    real space projection operators read in
  non local Contribution for L=           0  read in
    real space projection operators read in
  non local Contribution for L=           1  read in
    real space projection operators read in
  non local Contribution for L=           1  read in
    real space projection operators read in
    PAW grid and wavefunctions read in
 
   number of l-projection  operators is LMAX  =           4
   number of lm-projection operators is LMMAX =           8
 
  PAW_PBE Zn 06Sep2000                  :
 energy of atom  1       EATOM=-1748.8345
 kinetic energy error for atom=    0.0029 (will be added to EATOM!!)
  PAW_PBE Ca_sv 06Sep2000               :
 energy of atom  2       EATOM=-1006.0909
 kinetic energy error for atom=    0.0022 (will be added to EATOM!!)
  PAW_PBE N 08Apr2002                   :
 energy of atom  3       EATOM= -264.5486
 kinetic energy error for atom=    0.0125 (will be added to EATOM!!)
 
 
 POSCAR: generated by phonopy
  positions in direct lattice
  No initial velocities read in

 METAGGA = SCAN     LMAXTAU =  6    LMIXTAU =  F

 exchange correlation table for  LEXCH =        8
   RHO(1)=    0.500       N(1)  =     2000
   RHO(2)=  100.500       N(2)  =     4000
 


--------------------------------------------------------------------------------------------------------


 ion  position               nearest neighbor table
   1  0.001  0.000  0.001-   7 1.81   8 1.83
   2  0.500  0.500  0.500-  10 1.82   9 1.82
   3  0.000  1.000  0.338-   7 2.40
   4  0.000  0.000  0.662-   8 2.40
   5  0.500  0.500  0.838-   9 2.40
   6  0.500  0.500  0.162-  10 2.40
   7  1.000  0.000  0.146-   1 1.81   3 2.40
   8  1.000  0.000  0.854-   1 1.83   4 2.40
   9  0.500  0.500  0.646-   2 1.82   5 2.40
  10  0.500  0.500  0.354-   2 1.82   6 2.40
 

IMPORTANT INFORMATION: All symmetrisations will be switched off!
NOSYMM: (Re-)initialisation of all symmetry stuff for point group C_1.


----------------------------------------------------------------------------------------

                                     Primitive cell                                     

  volume of cell :     159.5304

  direct lattice vectors                    reciprocal lattice vectors
     3.574043013  0.000000006 -0.000000042     0.279795178 -0.000000001  0.000000003
     0.000000007  3.574042987 -0.000000007    -0.000000001  0.279795180  0.000000001
    -0.000000145 -0.000000025 12.488892887     0.000000001  0.000000000  0.080071149

  length of vectors
     3.574043013  3.574042987 12.488892887     0.279795178  0.279795180  0.080071149

  position of ions in fractional coordinates (direct lattice)
     0.000769794  0.000000001  0.000769952
     0.499999986  0.499999998  0.499999908
     0.000000127  1.000000000  0.337567670
     0.000000119  0.000000013  0.662432335
     0.500000146  0.500000005  0.837567650
     0.500000111  0.499999986  0.162432349
     0.999999854  0.000000019  0.145775347
     0.999999906  0.000000003  0.854224458
     0.499999894  0.499999999  0.645775510
     0.499999872  0.499999976  0.354224629

  ion indices of the primitive-cell ions
   primitive index   ion index
                 1           1
                 2           2
                 3           3
                 4           4
                 5           5
                 6           6
                 7           7
                 8           8
                 9           9
                10          10

----------------------------------------------------------------------------------------

 
 
 KPOINTS: Kpoints                                 

Automatic generation of k-mesh.
 generate k-points for:    9    9    3
Space group operators:
 irot       det(A)        alpha          n_x          n_y          n_z        tau_x        tau_y        tau_z
    1     1.000000     0.000000     1.000000     0.000000     0.000000     0.000000     0.000000     0.000000
 
 Subroutine IBZKPT returns following result:
 ===========================================
 
 Found    122 irreducible k-points:
 
 Following reciprocal coordinates:
            Coordinates               Weight
  0.000000  0.000000  0.000000      1.000000
  0.111111  0.000000 -0.000000      2.000000
 -0.000000  0.111111  0.000000      2.000000
  0.222222  0.000000 -0.000000      2.000000
 -0.000000  0.222222  0.000000      2.000000
  0.333333  0.000000  0.000000      2.000000
 -0.000000  0.333333  0.000000      2.000000
  0.444444  0.000000  0.000000      2.000000
 -0.000000  0.444444  0.000000      2.000000
  0.111111  0.111111 -0.000000      2.000000
 -0.111111  0.111111  0.000000      2.000000
  0.222222  0.111111 -0.000000      2.000000
 -0.111111  0.222222  0.000000      2.000000
 -0.222222  0.111111  0.000000      2.000000
  0.111111  0.222222 -0.000000      2.000000
  0.333333  0.111111  0.000000      2.000000
 -0.111111  0.333333  0.000000      2.000000
 -0.333333  0.111111 -0.000000      2.000000
  0.111111  0.333333 -0.000000      2.000000
  0.444444  0.111111  0.000000      2.000000
 -0.111111  0.444444  0.000000      2.000000
 -0.444444  0.111111 -0.000000      2.000000
  0.111111  0.444444 -0.000000      2.000000
  0.222222  0.222222 -0.000000      2.000000
 -0.222222  0.222222  0.000000      2.000000
  0.333333  0.222222  0.000000      2.000000
 -0.222222  0.333333  0.000000      2.000000
 -0.333333  0.222222 -0.000000      2.000000
  0.222222  0.333333 -0.000000      2.000000
  0.444444  0.222222  0.000000      2.000000
 -0.222222  0.444444  0.000000      2.000000
 -0.444444  0.222222 -0.000000      2.000000
  0.222222  0.444444 -0.000000      2.000000
  0.333333  0.333333  0.000000      2.000000
 -0.333333  0.333333 -0.000000      2.000000
  0.444444  0.333333  0.000000      2.000000
 -0.333333  0.444444 -0.000000      2.000000
 -0.444444  0.333333 -0.000000      2.000000
  0.333333  0.444444  0.000000      2.000000
  0.444444  0.444444  0.000000      2.000000
 -0.444444  0.444444  0.000000      2.000000
  0.000000 -0.000000  0.333333      2.000000
  0.111111  0.000000  0.333333      2.000000
  0.000000  0.111111  0.333333      2.000000
 -0.111111 -0.000000  0.333333      2.000000
  0.000000 -0.111111  0.333333      2.000000
  0.222222  0.000000  0.333333      2.000000
 -0.000000  0.222222  0.333333      2.000000
 -0.222222 -0.000000  0.333333      2.000000
  0.000000 -0.222222  0.333333      2.000000
  0.333333  0.000000  0.333333      2.000000
 -0.000000  0.333333  0.333333      2.000000
 -0.333333 -0.000000  0.333333      2.000000
  0.000000 -0.333333  0.333333      2.000000
  0.444444  0.000000  0.333333      2.000000
 -0.000000  0.444444  0.333333      2.000000
 -0.444444 -0.000000  0.333333      2.000000
  0.000000 -0.444444  0.333333      2.000000
  0.111111  0.111111  0.333333      2.000000
 -0.111111  0.111111  0.333333      2.000000
 -0.111111 -0.111111  0.333333      2.000000
  0.111111 -0.111111  0.333333      2.000000
  0.222222  0.111111  0.333333      2.000000
 -0.111111  0.222222  0.333333      2.000000
 -0.222222 -0.111111  0.333333      2.000000
  0.111111 -0.222222  0.333333      2.000000
 -0.222222  0.111111 -0.333333      2.000000
  0.111111  0.222222 -0.333333      2.000000
  0.222222 -0.111111 -0.333333      2.000000
 -0.111111 -0.222222 -0.333333      2.000000
  0.333333  0.111111  0.333333      2.000000
 -0.111111  0.333333  0.333333      2.000000
 -0.333333 -0.111111  0.333333      2.000000
  0.111111 -0.333333  0.333333      2.000000
 -0.333333  0.111111 -0.333333      2.000000
  0.111111  0.333333 -0.333333      2.000000
  0.333333 -0.111111 -0.333333      2.000000
 -0.111111 -0.333333 -0.333333      2.000000
  0.444444  0.111111  0.333333      2.000000
 -0.111111  0.444444  0.333333      2.000000
 -0.444444 -0.111111  0.333333      2.000000
  0.111111 -0.444444  0.333333      2.000000
 -0.444444  0.111111 -0.333333      2.000000
  0.111111  0.444444 -0.333333      2.000000
  0.444444 -0.111111 -0.333333      2.000000
 -0.111111 -0.444444 -0.333333      2.000000
  0.222222  0.222222  0.333333      2.000000
 -0.222222  0.222222  0.333333      2.000000
 -0.222222 -0.222222  0.333333      2.000000
  0.222222 -0.222222  0.333333      2.000000
  0.333333  0.222222  0.333333      2.000000
 -0.222222  0.333333  0.333333      2.000000
 -0.333333 -0.222222  0.333333      2.000000
  0.222222 -0.333333  0.333333      2.000000
 -0.333333  0.222222 -0.333333      2.000000
  0.222222  0.333333 -0.333333      2.000000
  0.333333 -0.222222 -0.333333      2.000000
 -0.222222 -0.333333 -0.333333      2.000000
  0.444444  0.222222  0.333333      2.000000
 -0.222222  0.444444  0.333333      2.000000
 -0.444444 -0.222222  0.333333      2.000000
  0.222222 -0.444444  0.333333      2.000000
 -0.444444  0.222222 -0.333333      2.000000
  0.222222  0.444444 -0.333333      2.000000
  0.444444 -0.222222 -0.333333      2.000000
 -0.222222 -0.444444 -0.333333      2.000000
  0.333333  0.333333  0.333333      2.000000
 -0.333333  0.333333  0.333333      2.000000
 -0.333333 -0.333333  0.333333      2.000000
  0.333333 -0.333333  0.333333      2.000000
  0.444444  0.333333  0.333333      2.000000
 -0.333333  0.444444  0.333333      2.000000
 -0.444444 -0.333333  0.333333      2.000000
  0.333333 -0.444444  0.333333      2.000000
 -0.444444  0.333333 -0.333333      2.000000
  0.333333  0.444444 -0.333333      2.000000
  0.444444 -0.333333 -0.333333      2.000000
 -0.333333 -0.444444 -0.333333      2.000000
  0.444444  0.444444  0.333333      2.000000
 -0.444444  0.444444  0.333333      2.000000
 -0.444444 -0.444444  0.333333      2.000000
  0.444444 -0.444444  0.333333      2.000000
 
 Following cartesian coordinates:
            Coordinates               Weight
  0.000000  0.000000  0.000000      1.000000
  0.031088 -0.000000  0.000000      2.000000
 -0.000000  0.031088  0.000000      2.000000
  0.062177 -0.000000  0.000000      2.000000
 -0.000000  0.062177  0.000000      2.000000
  0.093265 -0.000000  0.000000      2.000000
 -0.000000  0.093265  0.000000      2.000000
  0.124353 -0.000000  0.000000      2.000000
 -0.000000  0.124353  0.000000      2.000000
  0.031088  0.031088  0.000000      2.000000
 -0.031088  0.031088 -0.000000      2.000000
  0.062177  0.031088  0.000000      2.000000
 -0.031088  0.062177 -0.000000      2.000000
 -0.062177  0.031088 -0.000000      2.000000
  0.031088  0.062177  0.000000      2.000000
  0.093265  0.031088  0.000000      2.000000
 -0.031088  0.093265 -0.000000      2.000000
 -0.093265  0.031088 -0.000000      2.000000
  0.031088  0.093265  0.000000      2.000000
  0.124353  0.031088  0.000000      2.000000
 -0.031088  0.124353 -0.000000      2.000000
 -0.124353  0.031088 -0.000000      2.000000
  0.031088  0.124353  0.000000      2.000000
  0.062177  0.062177  0.000000      2.000000
 -0.062177  0.062177 -0.000000      2.000000
  0.093265  0.062177  0.000000      2.000000
 -0.062177  0.093265 -0.000000      2.000000
 -0.093265  0.062177 -0.000000      2.000000
  0.062177  0.093265  0.000000      2.000000
  0.124353  0.062177  0.000000      2.000000
 -0.062177  0.124353 -0.000000      2.000000
 -0.124353  0.062177 -0.000000      2.000000
  0.062177  0.124353  0.000000      2.000000
  0.093265  0.093265  0.000000      2.000000
 -0.093265  0.093265 -0.000000      2.000000
  0.124353  0.093265  0.000000      2.000000
 -0.093265  0.124353 -0.000000      2.000000
 -0.124353  0.093265 -0.000000      2.000000
  0.093265  0.124353  0.000000      2.000000
  0.124353  0.124353  0.000000      2.000000
 -0.124353  0.124353 -0.000000      2.000000
  0.000000  0.000000  0.026690      2.000000
  0.031088 -0.000000  0.026690      2.000000
  0.000000  0.031088  0.026690      2.000000
 -0.031088  0.000000  0.026690      2.000000
  0.000000 -0.031088  0.026690      2.000000
  0.062177 -0.000000  0.026690      2.000000
  0.000000  0.062177  0.026690      2.000000
 -0.062177  0.000000  0.026690      2.000000
  0.000000 -0.062177  0.026690      2.000000
  0.093265 -0.000000  0.026690      2.000000
  0.000000  0.093265  0.026690      2.000000
 -0.093265  0.000000  0.026690      2.000000
  0.000000 -0.093265  0.026690      2.000000
  0.124353 -0.000000  0.026690      2.000000
  0.000000  0.124353  0.026690      2.000000
 -0.124353  0.000000  0.026690      2.000000
  0.000000 -0.124353  0.026690      2.000000
  0.031088  0.031088  0.026690      2.000000
 -0.031088  0.031088  0.026690      2.000000
 -0.031088 -0.031088  0.026690      2.000000
  0.031088 -0.031088  0.026690      2.000000
  0.062177  0.031088  0.026690      2.000000
 -0.031088  0.062177  0.026690      2.000000
 -0.062177 -0.031088  0.026690      2.000000
  0.031088 -0.062177  0.026690      2.000000
 -0.062177  0.031088 -0.026690      2.000000
  0.031088  0.062177 -0.026690      2.000000
  0.062177 -0.031088 -0.026690      2.000000
 -0.031088 -0.062177 -0.026690      2.000000
  0.093265  0.031088  0.026690      2.000000
 -0.031088  0.093265  0.026690      2.000000
 -0.093265 -0.031088  0.026690      2.000000
  0.031088 -0.093265  0.026690      2.000000
 -0.093265  0.031088 -0.026690      2.000000
  0.031088  0.093265 -0.026690      2.000000
  0.093265 -0.031088 -0.026690      2.000000
 -0.031088 -0.093265 -0.026690      2.000000
  0.124353  0.031088  0.026690      2.000000
 -0.031088  0.124353  0.026690      2.000000
 -0.124353 -0.031088  0.026690      2.000000
  0.031088 -0.124353  0.026690      2.000000
 -0.124353  0.031088 -0.026690      2.000000
  0.031088  0.124353 -0.026690      2.000000
  0.124353 -0.031088 -0.026690      2.000000
 -0.031088 -0.124353 -0.026690      2.000000
  0.062177  0.062177  0.026690      2.000000
 -0.062177  0.062177  0.026690      2.000000
 -0.062177 -0.062177  0.026690      2.000000
  0.062177 -0.062177  0.026690      2.000000
  0.093265  0.062177  0.026690      2.000000
 -0.062177  0.093265  0.026690      2.000000
 -0.093265 -0.062177  0.026690      2.000000
  0.062177 -0.093265  0.026690      2.000000
 -0.093265  0.062177 -0.026690      2.000000
  0.062177  0.093265 -0.026690      2.000000
  0.093265 -0.062177 -0.026690      2.000000
 -0.062177 -0.093265 -0.026690      2.000000
  0.124353  0.062177  0.026690      2.000000
 -0.062177  0.124353  0.026690      2.000000
 -0.124353 -0.062177  0.026690      2.000000
  0.062177 -0.124353  0.026690      2.000000
 -0.124353  0.062177 -0.026690      2.000000
  0.062177  0.124353 -0.026690      2.000000
  0.124353 -0.062177 -0.026690      2.000000
 -0.062177 -0.124353 -0.026690      2.000000
  0.093265  0.093265  0.026690      2.000000
 -0.093265  0.093265  0.026690      2.000000
 -0.093265 -0.093265  0.026690      2.000000
  0.093265 -0.093265  0.026690      2.000000
  0.124353  0.093265  0.026690      2.000000
 -0.093265  0.124353  0.026690      2.000000
 -0.124353 -0.093265  0.026690      2.000000
  0.093265 -0.124353  0.026690      2.000000
 -0.124353  0.093265 -0.026690      2.000000
  0.093265  0.124353 -0.026690      2.000000
  0.124353 -0.093265 -0.026690      2.000000
 -0.093265 -0.124353 -0.026690      2.000000
  0.124353  0.124353  0.026690      2.000000
 -0.124353  0.124353  0.026690      2.000000
 -0.124353 -0.124353  0.026690      2.000000
  0.124353 -0.124353  0.026690      2.000000
 


--------------------------------------------------------------------------------------------------------




 Dimension of arrays:
   k-points           NKPTS =    122   k-points in BZ     NKDIM =    122   number of bands    NBANDS=     64
   number of dos      NEDOS =    301   number of ions     NIONS =     10
   non local maximal  LDIM  =      6   non local SUM 2l+1 LMDIM =     18
   total plane-waves  NPLWV =  75264
   max r-space proj   IRMAX =      1   max aug-charges    IRDMAX=  22706
   dimension x,y,z NGX =    28 NGY =   28 NGZ =   96
   dimension x,y,z NGXF=    56 NGYF=   56 NGZF=  192
   support grid    NGXF=    56 NGYF=   56 NGZF=  192
   ions per type =               2   4   4
   NGX,Y,Z   is equivalent  to a cutoff of  13.02, 13.02, 12.78 a.u.
   NGXF,Y,Z  is equivalent  to a cutoff of  26.05, 26.05, 25.56 a.u.

 SYSTEM =  unknown system                          
 POSCAR =  generated by phonopy                    

 Startparameter for this run:
   NWRITE =      2    write-flag & timer
   PREC   = accura    normal or accurate (medium, high low for compatibility)
   ISTART =      0    job   : 0-new  1-cont  2-samecut
   ICHARG =      2    charge: 1-file 2-atom 10-const
   ISPIN  =      2    spin polarized calculation?
   LNONCOLLINEAR =      F non collinear calculations
   LSORBIT =      F    spin-orbit coupling
   INIWAV =      1    electr: 0-lowe 1-rand  2-diag
   LASPH  =      T    aspherical Exc in radial PAW
   METAGGA=      F    non-selfconsistent MetaGGA calc.

 Electronic Relaxation 1
   ENCUT  =  520.0 eV  38.22 Ry    6.18 a.u.   6.65  6.65 23.22*2*pi/ulx,y,z
   ENINI  =  520.0     initial cutoff
   ENAUG  =  627.1 eV  augmentation charge cutoff
   NELM   =    200;   NELMIN=  6; NELMDL= -5     # of ELM steps 
   EDIFF  = 0.1E-05   stopping-criterion for ELM
   LREAL  =      F    real-space projection
   NLSPLINE    = F    spline interpolate recip. space projectors
   LCOMPAT=      F    compatible to vasp.4.4
   GGA_COMPAT  = T    GGA compatible to vasp.4.4-vasp.4.6
   LMAXPAW     = -100 max onsite density
   LMAXMIX     =    2 max onsite mixed and CHGCAR
   VOSKOWN=      0    Vosko Wilk Nusair interpolation
   ROPT   =    0.00000   0.00000   0.00000
 Ionic relaxation
   EDIFFG = -.3E-01   stopping-criterion for IOM
   NSW    =      0    number of steps for IOM
   NBLOCK =      1;   KBLOCK =      1    inner block; outer block 
   IBRION =     -1    ionic relax: 0-MD 1-quasi-New 2-CG
   NFREE  =      0    steps in history (QN), initial steepest desc. (CG)
   ISIF   =      2    stress and relaxation
   IWAVPR =     10    prediction:  0-non 1-charg 2-wave 3-comb
   ISYM   =      0    0-nonsym 1-usesym 2-fastsym
   LCORR  =      T    Harris-Foulkes like correction to forces

   POTIM  = 0.5000    time-step for ionic-motion
   TEIN   =    0.0    initial temperature
   TEBEG  =    0.0;   TEEND  =   0.0 temperature during run
   SMASS  =  -3.00    Nose mass-parameter (am)
   estimated Nose-frequenzy (Omega)   =  0.10E-29 period in steps = 0.13E+47 mass=  -0.292E-27a.u.
   SCALEE = 1.0000    scale energy and forces
   NPACO  =    256;   APACO  = 16.0  distance and # of slots for P.C.
   PSTRESS=    0.0 pullay stress

  Mass of Ions in am
   POMASS =  65.39 40.08 14.00
  Ionic Valenz
   ZVAL   =  12.00 10.00  5.00
  Atomic Wigner-Seitz radii
   RWIGS  =  -1.00 -1.00 -1.00
  virtual crystal weights 
   VCA    =   1.00  1.00  1.00
   NELECT =      84.0000    total number of electrons
   NUPDOWN=      -1.0000    fix difference up-down

 DOS related values:
   EMIN   =  10.00;   EMAX   =-10.00  energy-range for DOS
   EFERMI =   0.00
   ISMEAR =     0;   SIGMA  =   0.05  broadening in eV -4-tet -1-fermi 0-gaus

 Electronic relaxation 2 (details)
   IALGO  =     38    algorithm
   LDIAG  =      T    sub-space diagonalisation (order eigenvalues)
   LSUBROT=      F    optimize rotation matrix (better conditioning)
   TURBO    =      0    0=normal 1=particle mesh
   IRESTART =      0    0=no restart 2=restart with 2 vectors
   NREBOOT  =      0    no. of reboots
   NMIN     =      0    reboot dimension
   EREF     =   0.00    reference energy to select bands
   IMIX   =      4    mixing-type and parameters
     AMIX     =   0.40;   BMIX     =  1.00
     AMIX_MAG =   1.60;   BMIX_MAG =  1.00
     AMIN     =   0.10
     WC   =   100.;   INIMIX=   1;  MIXPRE=   1;  MAXMIX= -45

 Intra band minimization:
   WEIMIN = 0.0000     energy-eigenvalue tresh-hold
   EBREAK =  0.39E-08  absolut break condition
   DEPER  =   0.30     relativ break condition  

   TIME   =   0.40     timestep for ELM

  volume/ion in A,a.u.               =      15.95       107.66
  Fermi-wavevector in a.u.,A,eV,Ry     =   1.321965  2.498152 23.777441  1.747593
  Thomas-Fermi vector in A             =   2.451681
 
 Write flags
   LWAVE        =      F    write WAVECAR
   LDOWNSAMPLE  =      F    k-point downsampling of WAVECAR
   LCHARG       =      F    write CHGCAR
   LVTOT        =      F    write LOCPOT, total local potential
   LVHAR        =      F    write LOCPOT, Hartree potential only
   LELF         =      F    write electronic localiz. function (ELF)
   LORBIT       =     11    0 simple, 1 ext, 2 COOP (PROOUT), +10 PAW based schemes


 Dipole corrections
   LMONO  =      F    monopole corrections only (constant potential shift)
   LDIPOL =      F    correct potential (dipole corrections)
   IDIPOL =      0    1-x, 2-y, 3-z, 4-all directions 
   EPSILON=  1.0000000 bulk dielectric constant

 Exchange correlation treatment:
   GGA     =    --    GGA type
   LEXCH   =     8    internal setting for exchange type
   VOSKOWN=      0    Vosko Wilk Nusair interpolation
   LHFCALC =     F    Hartree Fock is set to
   LHFONE  =     F    Hartree Fock one center treatment
   AEXX    =    0.0000 exact exchange contribution

 Linear response parameters
   LEPSILON=     F    determine dielectric tensor
   LRPA    =     F    only Hartree local field effects (RPA)
   LNABLA  =     F    use nabla operator in PAW spheres
   LVEL    =     F    velocity operator in full k-point grid
   LINTERFAST=   F  fast interpolation
   KINTER  =     0    interpolate to denser k-point grid
   CSHIFT  =0.1000    complex shift for real part using Kramers Kronig
   OMEGAMAX=  -1.0    maximum frequency
   DEG_THRESHOLD= 0.2000000E-02 threshold for treating states as degnerate
   RTIME   =   -0.100 relaxation time in fs
  (WPLASMAI=    0.000 imaginary part of plasma frequency in eV, 0.658/RTIME)
   DFIELD  = 0.0000000 0.0000000 0.0000000 field for delta impulse in time
 
 Orbital magnetization related:
   ORBITALMAG=     F  switch on orbital magnetization
   LCHIMAG   =     F  perturbation theory with respect to B field
   DQ        =  0.001000  dq finite difference perturbation B field
   LLRAUG    =     F  two centre corrections for induced B field



--------------------------------------------------------------------------------------------------------


 Static calculation
 charge density and potential will be updated during run
 spin polarized calculation
 Variant of blocked Davidson
 Davidson routine will perform the subspace rotation
 perform sub-space diagonalisation
    after iterative eigenvector-optimisation
 modified Broyden-mixing scheme, WC =      100.0
 initial mixing is a Kerker type mixing with AMIX =  0.4000 and BMIX =      1.0000
 Hartree-type preconditioning will be used
 using additional bands           22
 reciprocal scheme for non local part
 use partial core corrections
 calculate Harris-corrections to forces 
   (improved forces if not selfconsistent)
 use gradient corrections 
 use of overlap-Matrix (Vanderbilt PP)
 Gauss-broadening in eV      SIGMA  =   0.05


--------------------------------------------------------------------------------------------------------


  energy-cutoff  :      520.00
  volume of cell :      159.53
      direct lattice vectors                 reciprocal lattice vectors
     3.574043013  0.000000006 -0.000000042     0.279795178 -0.000000001  0.000000003
     0.000000007  3.574042987 -0.000000007    -0.000000001  0.279795180  0.000000001
    -0.000000145 -0.000000025 12.488892887     0.000000001  0.000000000  0.080071149

  length of vectors
     3.574043013  3.574042987 12.488892887     0.279795178  0.279795180  0.080071149


 
 k-points in units of 2pi/SCALE and weight: Kpoints                                 
   0.00000000  0.00000000  0.00000000       0.004
   0.03108835 -0.00000000  0.00000000       0.008
  -0.00000000  0.03108835  0.00000000       0.008
   0.06217671 -0.00000000  0.00000000       0.008
  -0.00000000  0.06217671  0.00000000       0.008
   0.09326506 -0.00000000  0.00000000       0.008
  -0.00000000  0.09326506  0.00000000       0.008
   0.12435341 -0.00000000  0.00000000       0.008
  -0.00000000  0.12435341  0.00000000       0.008
   0.03108835  0.03108835  0.00000000       0.008
  -0.03108835  0.03108835 -0.00000000       0.008
   0.06217671  0.03108835  0.00000000       0.008
  -0.03108835  0.06217671 -0.00000000       0.008
  -0.06217671  0.03108835 -0.00000000       0.008
   0.03108835  0.06217671  0.00000000       0.008
   0.09326506  0.03108835  0.00000000       0.008
  -0.03108835  0.09326506 -0.00000000       0.008
  -0.09326506  0.03108835 -0.00000000       0.008
   0.03108835  0.09326506  0.00000000       0.008
   0.12435341  0.03108835  0.00000000       0.008
  -0.03108835  0.12435341 -0.00000000       0.008
  -0.12435341  0.03108835 -0.00000000       0.008
   0.03108835  0.12435341  0.00000000       0.008
   0.06217671  0.06217671  0.00000000       0.008
  -0.06217671  0.06217671 -0.00000000       0.008
   0.09326506  0.06217671  0.00000000       0.008
  -0.06217671  0.09326506 -0.00000000       0.008
  -0.09326506  0.06217671 -0.00000000       0.008
   0.06217671  0.09326506  0.00000000       0.008
   0.12435341  0.06217671  0.00000000       0.008
  -0.06217671  0.12435341 -0.00000000       0.008
  -0.12435341  0.06217671 -0.00000000       0.008
   0.06217671  0.12435341  0.00000000       0.008
   0.09326506  0.09326506  0.00000000       0.008
  -0.09326506  0.09326506 -0.00000000       0.008
   0.12435341  0.09326506  0.00000000       0.008
  -0.09326506  0.12435341 -0.00000000       0.008
  -0.12435341  0.09326506 -0.00000000       0.008
   0.09326506  0.12435341  0.00000000       0.008
   0.12435341  0.12435341  0.00000000       0.008
  -0.12435341  0.12435341 -0.00000000       0.008
   0.00000000  0.00000000  0.02669038       0.008
   0.03108835 -0.00000000  0.02669038       0.008
   0.00000000  0.03108835  0.02669038       0.008
  -0.03108835  0.00000000  0.02669038       0.008
   0.00000000 -0.03108835  0.02669038       0.008
   0.06217671 -0.00000000  0.02669038       0.008
   0.00000000  0.06217671  0.02669038       0.008
  -0.06217671  0.00000000  0.02669038       0.008
   0.00000000 -0.06217671  0.02669038       0.008
   0.09326506 -0.00000000  0.02669038       0.008
   0.00000000  0.09326506  0.02669038       0.008
  -0.09326506  0.00000000  0.02669038       0.008
   0.00000000 -0.09326506  0.02669038       0.008
   0.12435341 -0.00000000  0.02669038       0.008
   0.00000000  0.12435341  0.02669038       0.008
  -0.12435341  0.00000000  0.02669038       0.008
   0.00000000 -0.12435341  0.02669038       0.008
   0.03108835  0.03108835  0.02669038       0.008
  -0.03108835  0.03108835  0.02669038       0.008
  -0.03108835 -0.03108835  0.02669038       0.008
   0.03108835 -0.03108835  0.02669038       0.008
   0.06217671  0.03108835  0.02669038       0.008
  -0.03108835  0.06217671  0.02669038       0.008
  -0.06217671 -0.03108835  0.02669038       0.008
   0.03108835 -0.06217671  0.02669038       0.008
  -0.06217671  0.03108835 -0.02669038       0.008
   0.03108835  0.06217671 -0.02669038       0.008
   0.06217671 -0.03108835 -0.02669038       0.008
  -0.03108835 -0.06217671 -0.02669038       0.008
   0.09326506  0.03108835  0.02669038       0.008
  -0.03108835  0.09326506  0.02669038       0.008
  -0.09326506 -0.03108835  0.02669038       0.008
   0.03108835 -0.09326506  0.02669038       0.008
  -0.09326506  0.03108835 -0.02669038       0.008
   0.03108835  0.09326506 -0.02669038       0.008
   0.09326506 -0.03108835 -0.02669038       0.008
  -0.03108835 -0.09326506 -0.02669038       0.008
   0.12435341  0.03108835  0.02669038       0.008
  -0.03108835  0.12435341  0.02669038       0.008
  -0.12435341 -0.03108835  0.02669038       0.008
   0.03108835 -0.12435341  0.02669038       0.008
  -0.12435341  0.03108835 -0.02669038       0.008
   0.03108835  0.12435341 -0.02669038       0.008
   0.12435341 -0.03108835 -0.02669038       0.008
  -0.03108835 -0.12435341 -0.02669038       0.008
   0.06217671  0.06217671  0.02669038       0.008
  -0.06217671  0.06217671  0.02669038       0.008
  -0.06217671 -0.06217671  0.02669038       0.008
   0.06217671 -0.06217671  0.02669038       0.008
   0.09326506  0.06217671  0.02669038       0.008
  -0.06217671  0.09326506  0.02669038       0.008
  -0.09326506 -0.06217671  0.02669038       0.008
   0.06217671 -0.09326506  0.02669038       0.008
  -0.09326506  0.06217671 -0.02669038       0.008
   0.06217671  0.09326506 -0.02669038       0.008
   0.09326506 -0.06217671 -0.02669038       0.008
  -0.06217671 -0.09326506 -0.02669038       0.008
   0.12435341  0.06217671  0.02669038       0.008
  -0.06217671  0.12435341  0.02669038       0.008
  -0.12435341 -0.06217671  0.02669038       0.008
   0.06217671 -0.12435341  0.02669038       0.008
  -0.12435341  0.06217671 -0.02669038       0.008
   0.06217671  0.12435341 -0.02669038       0.008
   0.12435341 -0.06217671 -0.02669038       0.008
  -0.06217671 -0.12435341 -0.02669038       0.008
   0.09326506  0.09326506  0.02669038       0.008
  -0.09326506  0.09326506  0.02669038       0.008
  -0.09326506 -0.09326506  0.02669038       0.008
   0.09326506 -0.09326506  0.02669038       0.008
   0.12435341  0.09326506  0.02669038       0.008
  -0.09326506  0.12435341  0.02669038       0.008
  -0.12435341 -0.09326506  0.02669038       0.008
   0.09326506 -0.12435341  0.02669038       0.008
  -0.12435341  0.09326506 -0.02669038       0.008
   0.09326506  0.12435341 -0.02669038       0.008
   0.12435341 -0.09326506 -0.02669038       0.008
  -0.09326506 -0.12435341 -0.02669038       0.008
   0.12435341  0.12435341  0.02669038       0.008
  -0.12435341  0.12435341  0.02669038       0.008
  -0.12435341 -0.12435341  0.02669038       0.008
   0.12435341 -0.12435341  0.02669038       0.008
 
 k-points in reciprocal lattice and weights: Kpoints                                 
   0.00000000  0.00000000  0.00000000       0.004
   0.11111111  0.00000000 -0.00000000       0.008
  -0.00000000  0.11111111  0.00000000       0.008
   0.22222222  0.00000000 -0.00000000       0.008
  -0.00000000  0.22222222  0.00000000       0.008
   0.33333333  0.00000000  0.00000000       0.008
  -0.00000000  0.33333333  0.00000000       0.008
   0.44444444  0.00000000  0.00000000       0.008
  -0.00000000  0.44444444  0.00000000       0.008
   0.11111111  0.11111111 -0.00000000       0.008
  -0.11111111  0.11111111  0.00000000       0.008
   0.22222222  0.11111111 -0.00000000       0.008
  -0.11111111  0.22222222  0.00000000       0.008
  -0.22222222  0.11111111  0.00000000       0.008
   0.11111111  0.22222222 -0.00000000       0.008
   0.33333333  0.11111111  0.00000000       0.008
  -0.11111111  0.33333333  0.00000000       0.008
  -0.33333333  0.11111111 -0.00000000       0.008
   0.11111111  0.33333333 -0.00000000       0.008
   0.44444444  0.11111111  0.00000000       0.008
  -0.11111111  0.44444444  0.00000000       0.008
  -0.44444444  0.11111111 -0.00000000       0.008
   0.11111111  0.44444444 -0.00000000       0.008
   0.22222222  0.22222222 -0.00000000       0.008
  -0.22222222  0.22222222  0.00000000       0.008
   0.33333333  0.22222222  0.00000000       0.008
  -0.22222222  0.33333333  0.00000000       0.008
  -0.33333333  0.22222222 -0.00000000       0.008
   0.22222222  0.33333333 -0.00000000       0.008
   0.44444444  0.22222222  0.00000000       0.008
  -0.22222222  0.44444444  0.00000000       0.008
  -0.44444444  0.22222222 -0.00000000       0.008
   0.22222222  0.44444444 -0.00000000       0.008
   0.33333333  0.33333333  0.00000000       0.008
  -0.33333333  0.33333333 -0.00000000       0.008
   0.44444444  0.33333333  0.00000000       0.008
  -0.33333333  0.44444444 -0.00000000       0.008
  -0.44444444  0.33333333 -0.00000000       0.008
   0.33333333  0.44444444  0.00000000       0.008
   0.44444444  0.44444444  0.00000000       0.008
  -0.44444444  0.44444444  0.00000000       0.008
   0.00000000 -0.00000000  0.33333333       0.008
   0.11111111  0.00000000  0.33333333       0.008
   0.00000000  0.11111111  0.33333333       0.008
  -0.11111111 -0.00000000  0.33333333       0.008
   0.00000000 -0.11111111  0.33333333       0.008
   0.22222222  0.00000000  0.33333333       0.008
  -0.00000000  0.22222222  0.33333333       0.008
  -0.22222222 -0.00000000  0.33333333       0.008
   0.00000000 -0.22222222  0.33333333       0.008
   0.33333333  0.00000000  0.33333333       0.008
  -0.00000000  0.33333333  0.33333333       0.008
  -0.33333333 -0.00000000  0.33333333       0.008
   0.00000000 -0.33333333  0.33333333       0.008
   0.44444444  0.00000000  0.33333333       0.008
  -0.00000000  0.44444444  0.33333333       0.008
  -0.44444444 -0.00000000  0.33333333       0.008
   0.00000000 -0.44444444  0.33333333       0.008
   0.11111111  0.11111111  0.33333333       0.008
  -0.11111111  0.11111111  0.33333333       0.008
  -0.11111111 -0.11111111  0.33333333       0.008
   0.11111111 -0.11111111  0.33333333       0.008
   0.22222222  0.11111111  0.33333333       0.008
  -0.11111111  0.22222222  0.33333333       0.008
  -0.22222222 -0.11111111  0.33333333       0.008
   0.11111111 -0.22222222  0.33333333       0.008
  -0.22222222  0.11111111 -0.33333333       0.008
   0.11111111  0.22222222 -0.33333333       0.008
   0.22222222 -0.11111111 -0.33333333       0.008
  -0.11111111 -0.22222222 -0.33333333       0.008
   0.33333333  0.11111111  0.33333333       0.008
  -0.11111111  0.33333333  0.33333333       0.008
  -0.33333333 -0.11111111  0.33333333       0.008
   0.11111111 -0.33333333  0.33333333       0.008
  -0.33333333  0.11111111 -0.33333333       0.008
   0.11111111  0.33333333 -0.33333333       0.008
   0.33333333 -0.11111111 -0.33333333       0.008
  -0.11111111 -0.33333333 -0.33333333       0.008
   0.44444444  0.11111111  0.33333333       0.008
  -0.11111111  0.44444444  0.33333333       0.008
  -0.44444444 -0.11111111  0.33333333       0.008
   0.11111111 -0.44444444  0.33333333       0.008
  -0.44444444  0.11111111 -0.33333333       0.008
   0.11111111  0.44444444 -0.33333333       0.008
   0.44444444 -0.11111111 -0.33333333       0.008
  -0.11111111 -0.44444444 -0.33333333       0.008
   0.22222222  0.22222222  0.33333333       0.008
  -0.22222222  0.22222222  0.33333333       0.008
  -0.22222222 -0.22222222  0.33333333       0.008
   0.22222222 -0.22222222  0.33333333       0.008
   0.33333333  0.22222222  0.33333333       0.008
  -0.22222222  0.33333333  0.33333333       0.008
  -0.33333333 -0.22222222  0.33333333       0.008
   0.22222222 -0.33333333  0.33333333       0.008
  -0.33333333  0.22222222 -0.33333333       0.008
   0.22222222  0.33333333 -0.33333333       0.008
   0.33333333 -0.22222222 -0.33333333       0.008
  -0.22222222 -0.33333333 -0.33333333       0.008
   0.44444444  0.22222222  0.33333333       0.008
  -0.22222222  0.44444444  0.33333333       0.008
  -0.44444444 -0.22222222  0.33333333       0.008
   0.22222222 -0.44444444  0.33333333       0.008
  -0.44444444  0.22222222 -0.33333333       0.008
   0.22222222  0.44444444 -0.33333333       0.008
   0.44444444 -0.22222222 -0.33333333       0.008
  -0.22222222 -0.44444444 -0.33333333       0.008
   0.33333333  0.33333333  0.33333333       0.008
  -0.33333333  0.33333333  0.33333333       0.008
  -0.33333333 -0.33333333  0.33333333       0.008
   0.33333333 -0.33333333  0.33333333       0.008
   0.44444444  0.33333333  0.33333333       0.008
  -0.33333333  0.44444444  0.33333333       0.008
  -0.44444444 -0.33333333  0.33333333       0.008
   0.33333333 -0.44444444  0.33333333       0.008
  -0.44444444  0.33333333 -0.33333333       0.008
   0.33333333  0.44444444 -0.33333333       0.008
   0.44444444 -0.33333333 -0.33333333       0.008
  -0.33333333 -0.44444444 -0.33333333       0.008
   0.44444444  0.44444444  0.33333333       0.008
  -0.44444444  0.44444444  0.33333333       0.008
  -0.44444444 -0.44444444  0.33333333       0.008
   0.44444444 -0.44444444  0.33333333       0.008
 
 position of ions in fractional coordinates (direct lattice) 
   0.00076979  0.00000000  0.00076995
   0.49999999  0.50000000  0.49999991
   0.00000013  1.00000000  0.33756767
   0.00000012  0.00000001  0.66243234
   0.50000015  0.50000000  0.83756765
   0.50000011  0.49999999  0.16243235
   0.99999985  0.00000002  0.14577535
   0.99999991  0.00000000  0.85422446
   0.49999989  0.50000000  0.64577551
   0.49999987  0.49999998  0.35422463
 
 position of ions in cartesian coordinates  (Angst):
   0.00275128  0.00000001  0.00961585
   1.78702139  1.78702148  6.24444526
   0.00000041  3.57404298  4.21584647
   0.00000033  0.00000003  8.27304648
   1.78702191  1.78702149 10.46029264
   1.78702188  1.78702144  2.02860018
   3.57404247  0.00000007  1.82057265
   3.57404255 -0.00000001 10.66831772
   1.78702104  1.78702148  8.06502116
   1.78702100  1.78702140  4.42387343
 


--------------------------------------------------------------------------------------------------------


 k-point   1 :   0.0000 0.0000 0.0000  plane waves:    4327
 k-point   2 :   0.1111 0.0000-0.0000  plane waves:    4311
 k-point   3 :  -0.0000 0.1111 0.0000  plane waves:    4311
 k-point   4 :   0.2222 0.0000-0.0000  plane waves:    4319
 k-point   5 :  -0.0000 0.2222 0.0000  plane waves:    4319
 k-point   6 :   0.3333 0.0000 0.0000  plane waves:    4299
 k-point   7 :  -0.0000 0.3333 0.0000  plane waves:    4299
 k-point   8 :   0.4444 0.0000 0.0000  plane waves:    4290
 k-point   9 :  -0.0000 0.4444 0.0000  plane waves:    4290
 k-point  10 :   0.1111 0.1111-0.0000  plane waves:    4317
 k-point  11 :  -0.1111 0.1111 0.0000  plane waves:    4317
 k-point  12 :   0.2222 0.1111-0.0000  plane waves:    4303
 k-point  13 :  -0.1111 0.2222 0.0000  plane waves:    4303
 k-point  14 :  -0.2222 0.1111 0.0000  plane waves:    4303
 k-point  15 :   0.1111 0.2222-0.0000  plane waves:    4303
 k-point  16 :   0.3333 0.1111 0.0000  plane waves:    4293
 k-point  17 :  -0.1111 0.3333 0.0000  plane waves:    4293
 k-point  18 :  -0.3333 0.1111-0.0000  plane waves:    4293
 k-point  19 :   0.1111 0.3333-0.0000  plane waves:    4293
 k-point  20 :   0.4444 0.1111 0.0000  plane waves:    4280
 k-point  21 :  -0.1111 0.4444 0.0000  plane waves:    4280
 k-point  22 :  -0.4444 0.1111-0.0000  plane waves:    4280
 k-point  23 :   0.1111 0.4444-0.0000  plane waves:    4280
 k-point  24 :   0.2222 0.2222-0.0000  plane waves:    4297
 k-point  25 :  -0.2222 0.2222 0.0000  plane waves:    4297
 k-point  26 :   0.3333 0.2222 0.0000  plane waves:    4287
 k-point  27 :  -0.2222 0.3333 0.0000  plane waves:    4287
 k-point  28 :  -0.3333 0.2222-0.0000  plane waves:    4287
 k-point  29 :   0.2222 0.3333-0.0000  plane waves:    4287
 k-point  30 :   0.4444 0.2222 0.0000  plane waves:    4306
 k-point  31 :  -0.2222 0.4444 0.0000  plane waves:    4306
 k-point  32 :  -0.4444 0.2222-0.0000  plane waves:    4306
 k-point  33 :   0.2222 0.4444-0.0000  plane waves:    4306
 k-point  34 :   0.3333 0.3333 0.0000  plane waves:    4280
 k-point  35 :  -0.3333 0.3333-0.0000  plane waves:    4280
 k-point  36 :   0.4444 0.3333 0.0000  plane waves:    4285
 k-point  37 :  -0.3333 0.4444-0.0000  plane waves:    4285
 k-point  38 :  -0.4444 0.3333-0.0000  plane waves:    4285
 k-point  39 :   0.3333 0.4444 0.0000  plane waves:    4285
 k-point  40 :   0.4444 0.4444 0.0000  plane waves:    4298
 k-point  41 :  -0.4444 0.4444 0.0000  plane waves:    4298
 k-point  42 :   0.0000-0.0000 0.3333  plane waves:    4298
 k-point  43 :   0.1111 0.0000 0.3333  plane waves:    4317
 k-point  44 :   0.0000 0.1111 0.3333  plane waves:    4317
 k-point  45 :  -0.1111-0.0000 0.3333  plane waves:    4317
 k-point  46 :   0.0000-0.1111 0.3333  plane waves:    4317
 k-point  47 :   0.2222 0.0000 0.3333  plane waves:    4319
 k-point  48 :  -0.0000 0.2222 0.3333  plane waves:    4319
 k-point  49 :  -0.2222-0.0000 0.3333  plane waves:    4319
 k-point  50 :   0.0000-0.2222 0.3333  plane waves:    4319
 k-point  51 :   0.3333 0.0000 0.3333  plane waves:    4290
 k-point  52 :  -0.0000 0.3333 0.3333  plane waves:    4290
 k-point  53 :  -0.3333-0.0000 0.3333  plane waves:    4290
 k-point  54 :   0.0000-0.3333 0.3333  plane waves:    4290
 k-point  55 :   0.4444 0.0000 0.3333  plane waves:    4283
 k-point  56 :  -0.0000 0.4444 0.3333  plane waves:    4283
 k-point  57 :  -0.4444-0.0000 0.3333  plane waves:    4283
 k-point  58 :   0.0000-0.4444 0.3333  plane waves:    4283
 k-point  59 :   0.1111 0.1111 0.3333  plane waves:    4316
 k-point  60 :  -0.1111 0.1111 0.3333  plane waves:    4316
 k-point  61 :  -0.1111-0.1111 0.3333  plane waves:    4316
 k-point  62 :   0.1111-0.1111 0.3333  plane waves:    4316
 k-point  63 :   0.2222 0.1111 0.3333  plane waves:    4317
 k-point  64 :  -0.1111 0.2222 0.3333  plane waves:    4317
 k-point  65 :  -0.2222-0.1111 0.3333  plane waves:    4317
 k-point  66 :   0.1111-0.2222 0.3333  plane waves:    4317
 k-point  67 :  -0.2222 0.1111-0.3333  plane waves:    4317
 k-point  68 :   0.1111 0.2222-0.3333  plane waves:    4317
 k-point  69 :   0.2222-0.1111-0.3333  plane waves:    4317
 k-point  70 :  -0.1111-0.2222-0.3333  plane waves:    4317
 k-point  71 :   0.3333 0.1111 0.3333  plane waves:    4293
 k-point  72 :  -0.1111 0.3333 0.3333  plane waves:    4293
 k-point  73 :  -0.3333-0.1111 0.3333  plane waves:    4293
 k-point  74 :   0.1111-0.3333 0.3333  plane waves:    4293
 k-point  75 :  -0.3333 0.1111-0.3333  plane waves:    4293
 k-point  76 :   0.1111 0.3333-0.3333  plane waves:    4293
 k-point  77 :   0.3333-0.1111-0.3333  plane waves:    4293
 k-point  78 :  -0.1111-0.3333-0.3333  plane waves:    4293
 k-point  79 :   0.4444 0.1111 0.3333  plane waves:    4286
 k-point  80 :  -0.1111 0.4444 0.3333  plane waves:    4286
 k-point  81 :  -0.4444-0.1111 0.3333  plane waves:    4286
 k-point  82 :   0.1111-0.4444 0.3333  plane waves:    4286
 k-point  83 :  -0.4444 0.1111-0.3333  plane waves:    4286
 k-point  84 :   0.1111 0.4444-0.3333  plane waves:    4286
 k-point  85 :   0.4444-0.1111-0.3333  plane waves:    4286
 k-point  86 :  -0.1111-0.4444-0.3333  plane waves:    4286
 k-point  87 :   0.2222 0.2222 0.3333  plane waves:    4301
 k-point  88 :  -0.2222 0.2222 0.3333  plane waves:    4301
 k-point  89 :  -0.2222-0.2222 0.3333  plane waves:    4301
 k-point  90 :   0.2222-0.2222 0.3333  plane waves:    4301
 k-point  91 :   0.3333 0.2222 0.3333  plane waves:    4282
 k-point  92 :  -0.2222 0.3333 0.3333  plane waves:    4282
 k-point  93 :  -0.3333-0.2222 0.3333  plane waves:    4282
 k-point  94 :   0.2222-0.3333 0.3333  plane waves:    4282
 k-point  95 :  -0.3333 0.2222-0.3333  plane waves:    4282
 k-point  96 :   0.2222 0.3333-0.3333  plane waves:    4282
 k-point  97 :   0.3333-0.2222-0.3333  plane waves:    4282
 k-point  98 :  -0.2222-0.3333-0.3333  plane waves:    4282
 k-point  99 :   0.4444 0.2222 0.3333  plane waves:    4278
 k-point 100 :  -0.2222 0.4444 0.3333  plane waves:    4278
 k-point 101 :  -0.4444-0.2222 0.3333  plane waves:    4278
 k-point 102 :   0.2222-0.4444 0.3333  plane waves:    4278
 k-point 103 :  -0.4444 0.2222-0.3333  plane waves:    4278
 k-point 104 :   0.2222 0.4444-0.3333  plane waves:    4278
 k-point 105 :   0.4444-0.2222-0.3333  plane waves:    4278
 k-point 106 :  -0.2222-0.4444-0.3333  plane waves:    4278
 k-point 107 :   0.3333 0.3333 0.3333  plane waves:    4284
 k-point 108 :  -0.3333 0.3333 0.3333  plane waves:    4284
 k-point 109 :  -0.3333-0.3333 0.3333  plane waves:    4284
 k-point 110 :   0.3333-0.3333 0.3333  plane waves:    4284
 k-point 111 :   0.4444 0.3333 0.3333  plane waves:    4284
 k-point 112 :  -0.3333 0.4444 0.3333  plane waves:    4284
 k-point 113 :  -0.4444-0.3333 0.3333  plane waves:    4284
 k-point 114 :   0.3333-0.4444 0.3333  plane waves:    4284
 k-point 115 :  -0.4444 0.3333-0.3333  plane waves:    4284
 k-point 116 :   0.3333 0.4444-0.3333  plane waves:    4284
 k-point 117 :   0.4444-0.3333-0.3333  plane waves:    4284
 k-point 118 :  -0.3333-0.4444-0.3333  plane waves:    4284
 k-point 119 :   0.4444 0.4444 0.3333  plane waves:    4304
 k-point 120 :  -0.4444 0.4444 0.3333  plane waves:    4304
 k-point 121 :  -0.4444-0.4444 0.3333  plane waves:    4304
 k-point 122 :   0.4444-0.4444 0.3333  plane waves:    4304

 maximum and minimum number of plane-waves per node :      1095     1056

 maximum number of plane-waves:      4327
 maximum index in each direction: 
   IXMAX=    7   IYMAX=    7   IZMAX=   23
   IXMIN=   -7   IYMIN=   -7   IZMIN=  -23


 parallel 3D FFT for wavefunctions:
    minimum data exchange during FFTs selected (reduces bandwidth)
 parallel 3D FFT for charge:
    minimum data exchange during FFTs selected (reduces bandwidth)


 total amount of memory used by VASP MPI-rank0   111221. kBytes
=======================================================================

   base      :      30000. kBytes
   nonl-proj :      58361. kBytes
   fftplans  :        935. kBytes
   grid      :       3843. kBytes
   one-center:         93. kBytes
   wavefun   :      17989. kBytes
 
     INWAV:  cpu time    0.0000: real time    0.0000
 Broyden mixing: mesh for mixing (old mesh)
   NGX = 13   NGY = 13   NGZ = 47
  (NGX  = 56   NGY  = 56   NGZ  =192)
  gives a total of   7943 points

 initial charge density was supplied:
 charge density of overlapping atoms calculated
 number of electron      84.0000000 magnetization       0.6000000
 keeping initial charge density in first step


--------------------------------------------------------------------------------------------------------


 Maximum index for augmentation-charges          942 (set IRDMAX)


--------------------------------------------------------------------------------------------------------


 First call to EWALD:  gamma=   0.327
 Maximum number of real-space cells 4x 4x 1
 Maximum number of reciprocal cells 2x 2x 6

    FEWALD:  cpu time    0.0015: real time    0.0016


--------------------------------------- Iteration      1(   1)  ---------------------------------------


    POTLOK:  cpu time    0.0454: real time    0.0608
    SETDIJ:  cpu time    1.0281: real time    1.0301
     EDDAV:  cpu time   13.2301: real time   13.2647
       DOS:  cpu time    0.0050: real time    0.0050
    --------------------------------------------
      LOOP:  cpu time   14.3086: real time   14.3607

 eigenvalue-minimisations  : 31248
 total energy-change (2. order) : 0.7500439E+03  (-0.4179761E+04)
 number of electron      84.0000000 magnetization       0.6000000
 augmentation part       84.0000000 magnetization       0.6000000

 Free energy of the ion-electron system (eV)
  ---------------------------------------------------
  alpha Z        PSCENC =       451.66503955
  Ewald energy   TEWEN  =     -5990.77137951
  -Hartree energ DENC   =     -2273.67757030
  -exchange      EXHF   =         0.00000000
  -V(xc)+E(xc)   XCENC  =       422.61267245
  PAW double counting   =      6649.44116713    -7029.34659928
  entropy T*S    EENTRO =        -0.00408081
  eigenvalues    EBANDS =       -60.03755085
  atomic energy  EATOM  =      8580.16218116
  Solvation  Ediel_sol  =         0.00000000
  ---------------------------------------------------
  free energy    TOTEN  =       750.04387954 eV

  energy without entropy =      750.04796035  energy(sigma->0) =      750.04591994


--------------------------------------------------------------------------------------------------------




--------------------------------------- Iteration      1(   2)  ---------------------------------------


     EDDAV:  cpu time   13.5630: real time   13.6231
       DOS:  cpu time    0.0025: real time    0.0025
    --------------------------------------------
      LOOP:  cpu time   13.5655: real time   13.6256

 eigenvalue-minimisations  : 32576
 total energy-change (2. order) :-0.8047485E+03  (-0.7681378E+03)
 number of electron      84.0000000 magnetization       0.6000000
 augmentation part       84.0000000 magnetization       0.6000000

 Free energy of the ion-electron system (eV)
  ---------------------------------------------------
  alpha Z        PSCENC =       451.66503955
  Ewald energy   TEWEN  =     -5990.77137951
  -Hartree energ DENC   =     -2273.67757030
  -exchange      EXHF   =         0.00000000
  -V(xc)+E(xc)   XCENC  =       422.61267245
  PAW double counting   =      6649.44116713    -7029.34659928
  entropy T*S    EENTRO =        -0.00000000
  eigenvalues    EBANDS =      -864.79013926
  atomic energy  EATOM  =      8580.16218116
  Solvation  Ediel_sol  =         0.00000000
  ---------------------------------------------------
  free energy    TOTEN  =       -54.70462806 eV

  energy without entropy =      -54.70462806  energy(sigma->0) =      -54.70462806


--------------------------------------------------------------------------------------------------------




--------------------------------------- Iteration      1(   3)  ---------------------------------------


     EDDAV:  cpu time   17.9668: real time   18.0344
       DOS:  cpu time    0.0025: real time    0.0025
    --------------------------------------------
      LOOP:  cpu time   17.9693: real time   18.0368

 eigenvalue-minimisations  : 46512
 total energy-change (2. order) :-0.8413314E+02  (-0.8290764E+02)
 number of electron      84.0000000 magnetization       0.6000000
 augmentation part       84.0000000 magnetization       0.6000000

 Free energy of the ion-electron system (eV)
  ---------------------------------------------------
  alpha Z        PSCENC =       451.66503955
  Ewald energy   TEWEN  =     -5990.77137951
  -Hartree energ DENC   =     -2273.67757030
  -exchange      EXHF   =         0.00000000
  -V(xc)+E(xc)   XCENC  =       422.61267245
  PAW double counting   =      6649.44116713    -7029.34659928
  entropy T*S    EENTRO =        -0.00000000
  eigenvalues    EBANDS =      -948.92328002
  atomic energy  EATOM  =      8580.16218116
  Solvation  Ediel_sol  =         0.00000000
  ---------------------------------------------------
  free energy    TOTEN  =      -138.83776882 eV

  energy without entropy =     -138.83776882  energy(sigma->0) =     -138.83776882


--------------------------------------------------------------------------------------------------------




--------------------------------------- Iteration      1(   4)  ---------------------------------------


     EDDAV:  cpu time   16.3218: real time   16.3560
       DOS:  cpu time    0.0028: real time    0.0028
    --------------------------------------------
      LOOP:  cpu time   16.3246: real time   16.3588

 eigenvalue-minimisations  : 50976
 total energy-change (2. order) :-0.4692550E+01  (-0.4662617E+01)
 number of electron      84.0000000 magnetization       0.6000000
 augmentation part       84.0000000 magnetization       0.6000000

 Free energy of the ion-electron system (eV)
  ---------------------------------------------------
  alpha Z        PSCENC =       451.66503955
  Ewald energy   TEWEN  =     -5990.77137951
  -Hartree energ DENC   =     -2273.67757030
  -exchange      EXHF   =         0.00000000
  -V(xc)+E(xc)   XCENC  =       422.61267245
  PAW double counting   =      6649.44116713    -7029.34659928
  entropy T*S    EENTRO =        -0.00000000
  eigenvalues    EBANDS =      -953.61582975
  atomic energy  EATOM  =      8580.16218116
  Solvation  Ediel_sol  =         0.00000000
  ---------------------------------------------------
  free energy    TOTEN  =      -143.53031855 eV

  energy without entropy =     -143.53031855  energy(sigma->0) =     -143.53031855


--------------------------------------------------------------------------------------------------------




--------------------------------------- Iteration      1(   5)  ---------------------------------------


     EDDAV:  cpu time   14.0747: real time   14.1238
       DOS:  cpu time    0.0025: real time    0.0025
    CHARGE:  cpu time    1.0879: real time    1.0948
    MIXING:  cpu time    0.0035: real time    0.0040
    --------------------------------------------
      LOOP:  cpu time   15.1686: real time   15.2251

 eigenvalue-minimisations  : 41088
 total energy-change (2. order) :-0.1054448E+00  (-0.1054340E+00)
 number of electron      83.9999976 magnetization       0.4060930
 augmentation part       26.6366573 magnetization       0.4295617

 Broyden mixing:
  rms(total) = 0.20792E+01    rms(broyden)= 0.20788E+01
  rms(prec ) = 0.26686E+01
  weight for this iteration     100.00

 Free energy of the ion-electron system (eV)
  ---------------------------------------------------
  alpha Z        PSCENC =       451.66503955
  Ewald energy   TEWEN  =     -5990.77137951
  -Hartree energ DENC   =     -2273.67757030
  -exchange      EXHF   =         0.00000000
  -V(xc)+E(xc)   XCENC  =       422.61267245
  PAW double counting   =      6649.44116713    -7029.34659928
  entropy T*S    EENTRO =        -0.00000000
  eigenvalues    EBANDS =      -953.72127457
  atomic energy  EATOM  =      8580.16218116
  Solvation  Ediel_sol  =         0.00000000
  ---------------------------------------------------
  free energy    TOTEN  =      -143.63576336 eV

  energy without entropy =     -143.63576336  energy(sigma->0) =     -143.63576336


--------------------------------------------------------------------------------------------------------




--------------------------------------- Iteration      1(   6)  ---------------------------------------


    POTLOK:  cpu time    0.0412: real time    0.0565
    SETDIJ:  cpu time    0.9901: real time    0.9913
     EDDAV:  cpu time   15.4087: real time   15.4411
       DOS:  cpu time    0.0025: real time    0.0025
    CHARGE:  cpu time    1.0769: real time    1.0783
    MIXING:  cpu time    0.0015: real time    0.0015
    --------------------------------------------
      LOOP:  cpu time   17.5209: real time   17.5713

 eigenvalue-minimisations  : 47776
 total energy-change (2. order) : 0.3298477E+02  (-0.4345792E+01)
 number of electron      83.9999974 magnetization       0.2808359
 augmentation part       27.5128800 magnetization       0.2782325

 Broyden mixing:
  rms(total) = 0.11520E+01    rms(broyden)= 0.11519E+01
  rms(prec ) = 0.11962E+01
  weight for this iteration     100.00

 eigenvalues of (default mixing * dielectric matrix)
  average eigenvalue GAMMA=   0.8903
  0.8903

 Free energy of the ion-electron system (eV)
  ---------------------------------------------------
  alpha Z        PSCENC =       451.66503955
  Ewald energy   TEWEN  =     -5990.77137951
  -Hartree energ DENC   =     -2269.60946242
  -exchange      EXHF   =         0.00000000
  -V(xc)+E(xc)   XCENC  =       432.66353695
  PAW double counting   =      6970.32513233    -7349.84554301
  entropy T*S    EENTRO =        -0.00000000
  eigenvalues    EBANDS =      -935.24050179
  atomic energy  EATOM  =      8580.16218116
  Solvation  Ediel_sol  =         0.00000000
  ---------------------------------------------------
  free energy    TOTEN  =      -110.65099676 eV

  energy without entropy =     -110.65099676  energy(sigma->0) =     -110.65099676


--------------------------------------------------------------------------------------------------------




--------------------------------------- Iteration      1(   7)  ---------------------------------------


    POTLOK:  cpu time    0.0406: real time    0.0581
    SETDIJ:  cpu time    0.9784: real time    0.9795
     EDDAV:  cpu time   15.3806: real time   15.4132
       DOS:  cpu time    0.0028: real time    0.0029
    CHARGE:  cpu time    1.1212: real time    1.1235
    MIXING:  cpu time    0.0009: real time    0.0009
    --------------------------------------------
      LOOP:  cpu time   17.5246: real time   17.5780

 eigenvalue-minimisations  : 41536
 total energy-change (2. order) :-0.1001484E+01  (-0.1429657E+01)
 number of electron      83.9999974 magnetization       0.1835024
 augmentation part       27.0995196 magnetization       0.1780447

 Broyden mixing:
  rms(total) = 0.67945E+00    rms(broyden)= 0.67937E+00
  rms(prec ) = 0.73034E+00
  weight for this iteration     100.00

 eigenvalues of (default mixing * dielectric matrix)
  average eigenvalue GAMMA=   1.1045
  1.1045  1.1045

 Free energy of the ion-electron system (eV)
  ---------------------------------------------------
  alpha Z        PSCENC =       451.66503955
  Ewald energy   TEWEN  =     -5990.77137951
  -Hartree energ DENC   =     -2286.33673452
  -exchange      EXHF   =         0.00000000
  -V(xc)+E(xc)   XCENC  =       432.84157430
  PAW double counting   =      7237.17556097    -7639.35239493
  entropy T*S    EENTRO =        -0.00000000
  eigenvalues    EBANDS =      -897.03632749
  atomic energy  EATOM  =      8580.16218116
  Solvation  Ediel_sol  =         0.00000000
  ---------------------------------------------------
  free energy    TOTEN  =      -111.65248048 eV

  energy without entropy =     -111.65248048  energy(sigma->0) =     -111.65248048


--------------------------------------------------------------------------------------------------------




--------------------------------------- Iteration      1(   8)  ---------------------------------------


    POTLOK:  cpu time    0.0398: real time    0.0399
    SETDIJ:  cpu time    1.0209: real time    1.0222
     EDDAV:  cpu time   18.3977: real time   18.4388
       DOS:  cpu time    0.0025: real time    0.0025
    CHARGE:  cpu time    1.1211: real time    1.1235
    MIXING:  cpu time    0.0007: real time    0.0007
    --------------------------------------------
      LOOP:  cpu time   20.5827: real time   20.6276

 eigenvalue-minimisations  : 48288
 total energy-change (2. order) : 0.1207018E-01  (-0.1892168E+00)
 number of electron      83.9999974 magnetization       0.0299894
 augmentation part       27.2160103 magnetization       0.0228047

 Broyden mixing:
  rms(total) = 0.38661E+00    rms(broyden)= 0.38659E+00
  rms(prec ) = 0.42249E+00
  weight for this iteration     100.00

 eigenvalues of (default mixing * dielectric matrix)
  average eigenvalue GAMMA=   1.4619
  2.6758  0.8550  0.8550

 Free energy of the ion-electron system (eV)
  ---------------------------------------------------
  alpha Z        PSCENC =       451.66503955
  Ewald energy   TEWEN  =     -5990.77137951
  -Hartree energ DENC   =     -2271.42442944
  -exchange      EXHF   =         0.00000000
  -V(xc)+E(xc)   XCENC  =       431.04582945
  PAW double counting   =      7448.76154205    -7857.58675776
  entropy T*S    EENTRO =        -0.00000000
  eigenvalues    EBANDS =      -903.49243581
  atomic energy  EATOM  =      8580.16218116
  Solvation  Ediel_sol  =         0.00000000
  ---------------------------------------------------
  free energy    TOTEN  =      -111.64041030 eV

  energy without entropy =     -111.64041030  energy(sigma->0) =     -111.64041030


--------------------------------------------------------------------------------------------------------




--------------------------------------- Iteration      1(   9)  ---------------------------------------


    POTLOK:  cpu time    0.0407: real time    0.0622
    SETDIJ:  cpu time    1.0123: real time    1.0136
     EDDAV:  cpu time   16.6844: real time   16.7219
       DOS:  cpu time    0.0030: real time    0.0030
    CHARGE:  cpu time    1.1333: real time    1.1354
    MIXING:  cpu time    0.0010: real time    0.0009
    --------------------------------------------
      LOOP:  cpu time   18.8747: real time   18.9370

 eigenvalue-minimisations  : 42576
 total energy-change (2. order) : 0.8449468E-01  (-0.4814641E-01)
 number of electron      83.9999975 magnetization       0.0351458
 augmentation part       27.1353814 magnetization       0.0294230

 Broyden mixing:
  rms(total) = 0.11963E+00    rms(broyden)= 0.11962E+00
  rms(prec ) = 0.13325E+00
  weight for this iteration     100.00

 eigenvalues of (default mixing * dielectric matrix)
  average eigenvalue GAMMA=   1.2651
  2.4725  0.9363  0.9363  0.7152

 Free energy of the ion-electron system (eV)
  ---------------------------------------------------
  alpha Z        PSCENC =       451.66503955
  Ewald energy   TEWEN  =     -5990.77137951
  -Hartree energ DENC   =     -2271.20931234
  -exchange      EXHF   =         0.00000000
  -V(xc)+E(xc)   XCENC  =       431.74214383
  PAW double counting   =      7775.46388783    -8198.76846778
  entropy T*S    EENTRO =        -0.00000000
  eigenvalues    EBANDS =      -889.84000836
  atomic energy  EATOM  =      8580.16218116
  Solvation  Ediel_sol  =         0.00000000
  ---------------------------------------------------
  free energy    TOTEN  =      -111.55591562 eV

  energy without entropy =     -111.55591562  energy(sigma->0) =     -111.55591562


--------------------------------------------------------------------------------------------------------




--------------------------------------- Iteration      1(  10)  ---------------------------------------


    POTLOK:  cpu time    0.0398: real time    0.0577
    SETDIJ:  cpu time    1.0149: real time    1.0161
     EDDAV:  cpu time   16.6703: real time   16.7071
       DOS:  cpu time    0.0025: real time    0.0025
    CHARGE:  cpu time    1.1366: real time    1.1388
    MIXING:  cpu time    0.0010: real time    0.0010
    --------------------------------------------
      LOOP:  cpu time   18.8651: real time   18.9233

 eigenvalue-minimisations  : 42752
 total energy-change (2. order) : 0.1614928E-01  (-0.1369585E-01)
 number of electron      83.9999974 magnetization       0.0176913
 augmentation part       27.1611067 magnetization       0.0140133

 Broyden mixing:
  rms(total) = 0.41146E-01    rms(broyden)= 0.41127E-01
  rms(prec ) = 0.47640E-01
  weight for this iteration     100.00

 eigenvalues of (default mixing * dielectric matrix)
  average eigenvalue GAMMA=   1.2240
  2.3787  1.1995  0.9018  0.9018  0.7381

 Free energy of the ion-electron system (eV)
  ---------------------------------------------------
  alpha Z        PSCENC =       451.66503955
  Ewald energy   TEWEN  =     -5990.77137951
  -Hartree energ DENC   =     -2271.44130702
  -exchange      EXHF   =         0.00000000
  -V(xc)+E(xc)   XCENC  =       431.64720025
  PAW double counting   =      7719.09276389    -8140.15956584
  entropy T*S    EENTRO =        -0.00000000
  eigenvalues    EBANDS =      -891.73469883
  atomic energy  EATOM  =      8580.16218116
  Solvation  Ediel_sol  =         0.00000000
  ---------------------------------------------------
  free energy    TOTEN  =      -111.53976634 eV

  energy without entropy =     -111.53976634  energy(sigma->0) =     -111.53976634


--------------------------------------------------------------------------------------------------------




--------------------------------------- Iteration      1(  11)  ---------------------------------------


    POTLOK:  cpu time    0.0424: real time    0.0608
    SETDIJ:  cpu time    1.0000: real time    1.0012
     EDDAV:  cpu time   13.4489: real time   13.4788
       DOS:  cpu time    0.0026: real time    0.0026
    CHARGE:  cpu time    1.0803: real time    1.0819
    MIXING:  cpu time    0.0008: real time    0.0008
    --------------------------------------------
      LOOP:  cpu time   15.5749: real time   15.6259

 eigenvalue-minimisations  : 40400
 total energy-change (2. order) :-0.4966203E-03  (-0.1702589E-02)
 number of electron      83.9999974 magnetization       0.0083007
 augmentation part       27.1665983 magnetization       0.0056618

 Broyden mixing:
  rms(total) = 0.14015E-01    rms(broyden)= 0.14014E-01
  rms(prec ) = 0.15577E-01
  weight for this iteration     100.00

 eigenvalues of (default mixing * dielectric matrix)
  average eigenvalue GAMMA=   1.3379
  2.4722  2.1945  0.9557  0.9557  0.7988  0.6508

 Free energy of the ion-electron system (eV)
  ---------------------------------------------------
  alpha Z        PSCENC =       451.66503955
  Ewald energy   TEWEN  =     -5990.77137951
  -Hartree energ DENC   =     -2270.16702742
  -exchange      EXHF   =         0.00000000
  -V(xc)+E(xc)   XCENC  =       431.51227357
  PAW double counting   =      7710.76030244    -8132.19783972
  entropy T*S    EENTRO =        -0.00000000
  eigenvalues    EBANDS =      -892.50381304
  atomic energy  EATOM  =      8580.16218116
  Solvation  Ediel_sol  =         0.00000000
  ---------------------------------------------------
[...]
     53       9.3191      0.00000
     54       9.3734      0.00000
     55      10.1928      0.00000
     56      10.2724      0.00000
     57      10.3587      0.00000
     58      10.4235      0.00000
     59      10.6611      0.00000
     60      10.7677      0.00000
     61      10.8531      0.00000
     62      10.8805      0.00000
     63      10.9020      0.00000
     64      10.9824      0.00000

 k-point   122 :       0.4444   -0.4444    0.3333
  band No.  band energies     occupation 
      1     -38.0675      1.00000
      2     -38.0546      1.00000
      3     -38.0424      1.00000
      4     -38.0295      1.00000
      5     -18.4386      1.00000
      6     -18.4140      1.00000
      7     -18.3982      1.00000
      8     -18.3893      1.00000
      9     -18.3724      1.00000
     10     -18.3658      1.00000
     11     -18.3405      1.00000
     12     -18.3172      1.00000
     13     -18.1705      1.00000
     14     -18.1687      1.00000
     15     -18.1446      1.00000
     16     -18.1429      1.00000
     17     -10.9841      1.00000
     18     -10.9795      1.00000
     19     -10.3101      1.00000
     20     -10.3056      1.00000
     21      -4.3908      1.00000
     22      -4.3875      1.00000
     23      -4.3873      1.00000
     24      -4.3841      1.00000
     25      -4.2985      1.00000
     26      -4.2976      1.00000
     27      -4.1036      1.00000
     28      -4.1013      1.00000
     29      -4.0799      1.00000
     30      -4.0775      1.00000
     31      -0.0733      1.00000
     32      -0.0087      1.00000
     33       0.5859      1.00000
     34       0.6154      1.00000
     35       0.6431      1.00000
     36       0.6837      1.00000
     37       1.0223      1.00000
     38       1.0289      1.00000
     39       1.6883      1.00000
     40       1.7572      1.00000
     41       1.8998      1.00000
     42       1.9637      1.00000
     43       4.6437      0.00000
     44       4.6690      0.00000
     45       5.3420      0.00000
     46       5.4233      0.00000
     47       6.7922      0.00000
     48       6.8010      0.00000
     49       7.5532      0.00000
     50       7.6511      0.00000
     51       8.6638      0.00000
     52       8.6966      0.00000
     53       9.3191      0.00000
     54       9.3734      0.00000
     55      10.1928      0.00000
     56      10.2724      0.00000
     57      10.3587      0.00000
     58      10.4235      0.00000
     59      10.6611      0.00000
     60      10.7678      0.00000
     61      10.8531      0.00000
     62      10.8805      0.00000
     63      10.9020      0.00000
     64      10.9824      0.00000


--------------------------------------------------------------------------------------------------------


 soft charge-density along one line, spin component           1
         0         1         2         3         4         5         6         7         8         9
 total charge-density along one line
 
 soft charge-density along one line, spin component           2
         0         1         2         3         4         5         6         7         8         9
 total charge-density along one line
 
 pseudopotential strength for first ion, spin component:           1
-10.237   0.001   0.000   0.000   0.000 -10.577   0.001   0.000
  0.001 -10.167   0.000  -0.000   0.000   0.001 -10.503  -0.000
  0.000   0.000 -10.118  -0.000  -0.000   0.000  -0.000 -10.468
  0.000  -0.000  -0.000 -10.167  -0.000   0.000  -0.000  -0.000
  0.000   0.000  -0.000  -0.000 -10.237   0.000   0.000  -0.000
-10.577   0.001   0.000   0.000   0.000 -10.844   0.001   0.000
  0.001 -10.503  -0.000  -0.000   0.000   0.001 -10.767  -0.000
  0.000  -0.000 -10.468  -0.000  -0.000   0.000  -0.000 -10.745
  0.000  -0.000  -0.000 -10.503  -0.000   0.000  -0.000  -0.000
  0.000   0.000  -0.000  -0.000 -10.577   0.000   0.000  -0.000
 -0.000   0.000   0.031   0.000   0.000  -0.000   0.000   0.031
 -0.000   0.000   0.053   0.000   0.000  -0.000   0.000   0.050
  0.000  -0.000   0.000   0.000   0.000   0.000  -0.000   0.000
  0.000  -0.000  -0.005   0.000  -0.000   0.000  -0.000  -0.005
 -0.000   0.000  -0.000  -0.000   0.000  -0.000   0.000  -0.000
  0.000  -0.000   0.000   0.000   0.000   0.000  -0.000   0.000
  0.000  -0.000  -0.006   0.000  -0.000   0.000  -0.000  -0.006
 -0.000   0.000  -0.000  -0.000   0.000  -0.000   0.000  -0.000
 pseudopotential strength for first ion, spin component:           2
-10.237   0.001   0.000   0.000  -0.000 -10.577   0.001   0.000
  0.001 -10.167   0.000  -0.000  -0.000   0.001 -10.503   0.000
  0.000   0.000 -10.118  -0.000  -0.000   0.000   0.000 -10.468
  0.000  -0.000  -0.000 -10.167  -0.000   0.000  -0.000  -0.000
 -0.000  -0.000  -0.000  -0.000 -10.237  -0.000  -0.000  -0.000
-10.577   0.001   0.000   0.000  -0.000 -10.844   0.001   0.000
  0.001 -10.503   0.000  -0.000  -0.000   0.001 -10.767   0.000
  0.000   0.000 -10.468  -0.000  -0.000   0.000   0.000 -10.745
  0.000  -0.000  -0.000 -10.503  -0.000   0.000  -0.000  -0.000
 -0.000  -0.000  -0.000  -0.000 -10.577  -0.000  -0.000  -0.000
 -0.000  -0.000   0.031   0.000   0.000  -0.000  -0.000   0.031
 -0.000  -0.000   0.053   0.000   0.000  -0.000  -0.000   0.050
  0.000  -0.000  -0.000   0.000  -0.000   0.000  -0.000  -0.000
  0.000  -0.000  -0.005   0.000  -0.000   0.000  -0.000  -0.005
  0.000   0.000  -0.000  -0.000   0.000   0.000   0.000  -0.000
  0.000  -0.000  -0.000   0.000  -0.000   0.000  -0.000  -0.000
  0.000  -0.000  -0.006   0.000  -0.000   0.000  -0.000  -0.006
  0.000   0.000  -0.000  -0.000   0.000   0.000   0.000  -0.000
 total augmentation occupancy for first ion, spin component:           1
  2.168   0.001  -0.000   0.000  -0.000  -0.104  -0.000   0.000  -0.000   0.000   0.000   0.000   0.001  -0.000  -0.000  -0.000
  0.001   5.512   0.000  -0.000  -0.000  -0.000  -3.254  -0.000   0.000   0.000  -0.000   0.000  -0.023  -0.000   0.000   0.003
 -0.000   0.000   4.669  -0.001  -0.000   0.000  -0.000  -3.372   0.001   0.000  -3.033   0.793  -0.000  -0.063   0.000   0.000
  0.000  -0.000  -0.001   5.512  -0.001  -0.000   0.000   0.001  -3.254   0.000   0.000  -0.000   0.000   0.006  -0.023  -0.000
 -0.000  -0.000  -0.000  -0.001   2.424   0.000   0.000   0.000   0.000  -0.297   0.000  -0.000   0.000  -0.000   0.001  -0.000
 -0.104  -0.000   0.000  -0.000   0.000   0.026   0.000  -0.000   0.000  -0.000  -0.000   0.000  -0.001   0.000   0.000   0.000
 -0.000  -3.254  -0.000   0.000   0.000   0.000   2.986   0.000  -0.000  -0.000   0.000  -0.000   0.023   0.000   0.000  -0.003
  0.000  -0.000  -3.372   0.001   0.000  -0.000   0.000   4.001  -0.000  -0.000   3.152  -0.974   0.000   0.068  -0.001  -0.000
 -0.000   0.000   0.001  -3.254   0.000   0.000  -0.000  -0.000   2.986  -0.000  -0.000   0.000  -0.000  -0.006   0.023   0.000
  0.000   0.000   0.000   0.000  -0.297  -0.000  -0.000  -0.000  -0.000   0.160   0.000   0.000  -0.000   0.000  -0.001   0.000
  0.000  -0.000  -3.033   0.000   0.000  -0.000   0.000   3.152  -0.000   0.000   3.462  -0.874   0.000   0.032  -0.001  -0.000
  0.000   0.000   0.793  -0.000  -0.000   0.000  -0.000  -0.974   0.000   0.000  -0.874   0.289  -0.000  -0.011   0.000   0.000
  0.001  -0.023  -0.000   0.000   0.000  -0.001   0.023   0.000  -0.000  -0.000   0.000  -0.000   0.255   0.000  -0.000  -0.037
 -0.000  -0.000  -0.063   0.006  -0.000   0.000   0.000   0.068  -0.006   0.000   0.032  -0.011   0.000   1.054   0.000  -0.000
 -0.000   0.000   0.000  -0.023   0.001   0.000   0.000  -0.001   0.023  -0.001  -0.001   0.000  -0.000   0.000   0.255   0.000
 -0.000   0.003   0.000  -0.000  -0.000   0.000  -0.003  -0.000   0.000   0.000  -0.000   0.000  -0.037  -0.000   0.000   0.006
  0.000   0.000   0.016  -0.001   0.000  -0.000  -0.000  -0.017   0.001  -0.000  -0.009   0.003  -0.000  -0.236  -0.000   0.000
  0.000  -0.000  -0.000   0.003  -0.000  -0.000   0.000   0.000  -0.003   0.000   0.000  -0.000   0.000  -0.000  -0.037  -0.000
 total augmentation occupancy for first ion, spin component:           2
  0.000  -0.000   0.000  -0.000  -0.000  -0.000   0.000  -0.000   0.000   0.000  -0.000   0.000  -0.000   0.000  -0.000   0.000
 -0.000   0.000  -0.000   0.000  -0.000   0.000  -0.000   0.000  -0.000   0.000   0.000  -0.000  -0.000  -0.000  -0.000   0.000
  0.000  -0.000  -0.000  -0.000   0.000  -0.000   0.000   0.000   0.000  -0.000   0.000  -0.000   0.000  -0.000  -0.000  -0.000
 -0.000   0.000  -0.000   0.000   0.000   0.000  -0.000   0.000  -0.000  -0.000   0.000  -0.000   0.000  -0.000  -0.000  -0.000
 -0.000  -0.000   0.000   0.000   0.000   0.000   0.000  -0.000  -0.000  -0.000  -0.000  -0.000   0.000   0.000  -0.000  -0.000
 -0.000   0.000  -0.000   0.000   0.000   0.000  -0.000   0.000  -0.000  -0.000   0.000  -0.000   0.000  -0.000   0.000  -0.000
  0.000  -0.000   0.000  -0.000   0.000  -0.000   0.000  -0.000   0.000  -0.000   0.000   0.000   0.000   0.000   0.000  -0.000
 -0.000   0.000   0.000   0.000  -0.000   0.000  -0.000  -0.000  -0.000   0.000  -0.000   0.000  -0.000   0.000   0.000   0.000
  0.000  -0.000   0.000  -0.000  -0.000  -0.000   0.000  -0.000   0.000  -0.000  -0.000   0.000  -0.000   0.000   0.000   0.000
  0.000   0.000  -0.000  -0.000  -0.000  -0.000  -0.000   0.000  -0.000   0.000   0.000  -0.000  -0.000  -0.000   0.000   0.000
 -0.000   0.000   0.000   0.000  -0.000   0.000   0.000  -0.000  -0.000   0.000   0.000   0.000   0.000  -0.000   0.000   0.000
  0.000  -0.000  -0.000  -0.000  -0.000  -0.000   0.000   0.000   0.000  -0.000   0.000  -0.000  -0.000   0.000  -0.000  -0.000
 -0.000  -0.000   0.000   0.000   0.000   0.000   0.000  -0.000  -0.000  -0.000   0.000  -0.000   0.000  -0.000  -0.000  -0.000
  0.000  -0.000  -0.000  -0.000   0.000  -0.000   0.000   0.000   0.000  -0.000  -0.000   0.000  -0.000  -0.000  -0.000   0.000
 -0.000  -0.000  -0.000  -0.000  -0.000   0.000   0.000   0.000   0.000   0.000   0.000  -0.000  -0.000  -0.000   0.000   0.000
  0.000   0.000  -0.000  -0.000  -0.000  -0.000  -0.000   0.000   0.000   0.000   0.000  -0.000  -0.000   0.000   0.000   0.000
 -0.000   0.000   0.000  -0.000  -0.000   0.000   0.000  -0.000  -0.000   0.000  -0.000   0.000   0.000   0.000   0.000  -0.000
  0.000   0.000  -0.000   0.000   0.000  -0.000  -0.000   0.000  -0.000  -0.000   0.000  -0.000   0.000   0.000  -0.000  -0.000


------------------------ aborting loop because EDIFF is reached ----------------------------------------


 


 total charge     
 
# of ion       s       p       d       tot
------------------------------------------
    1        0.694   0.643   9.761  11.098
    2        0.694   0.643   9.761  11.098
    3        2.040   5.872   0.276   8.188
    4        2.040   5.872   0.276   8.188
    5        2.040   5.872   0.275   8.188
    6        2.040   5.872   0.276   8.189
    7        1.255   2.425   0.000   3.680
    8        1.255   2.419   0.000   3.673
    9        1.255   2.422   0.000   3.677
   10        1.255   2.422   0.000   3.677
--------------------------------------------------
tot         14.569  34.463  20.624  69.656
 


 magnetization (x)
 
# of ion       s       p       d       tot
------------------------------------------
    1        0.000   0.000  -0.000   0.000
    2        0.000   0.000  -0.000   0.000
    3        0.000   0.000   0.000   0.000
    4        0.000   0.000   0.000   0.000
    5        0.000   0.000   0.000   0.000
    6        0.000   0.000   0.000   0.000
    7       -0.000  -0.000   0.000  -0.000
    8       -0.000  -0.000   0.000  -0.000
    9       -0.000  -0.000   0.000  -0.000
   10       -0.000  -0.000   0.000  -0.000
--------------------------------------------------
tot          0.000  -0.000   0.000  -0.000
 
    CHARGE:  cpu time    0.1265: real time    0.1267
    FORLOC:  cpu time    0.0006: real time    0.0006
    FORNL :  cpu time    0.6898: real time    0.6911
    STRESS:  cpu time   20.2086: real time   20.2363
    FORCOR:  cpu time    0.0301: real time    0.0303
    FORHAR:  cpu time    0.0028: real time    0.0029
    MIXING:  cpu time    0.0007: real time    0.0007
    OFIELD:  cpu time    0.0001: real time    0.0001

  FORCE on cell =-STRESS in cart. coord.  units (eV):
  Direction    XX          YY          ZZ          XY          YZ          ZX
  --------------------------------------------------------------------------------------
  Alpha Z   451.66504   451.66504   451.66504
  Ewald   -2312.88390 -2312.88361 -1365.01017    -0.00001     0.00002    -0.00992
  Hartree   581.44464   581.44347  1107.36365    -0.00000     0.00002    -0.00314
  E(xc)    -437.26949  -437.26939  -437.76531    -0.00000     0.00000    -0.00030
  Local     718.70138   718.70258  -706.67863     0.00001    -0.00004     0.01193
  n-local  -256.40209  -256.40045  -243.20255    -0.00000     0.00000    -0.00237
  augment   209.97485   209.96143   203.28774    -0.00000    -0.00000     0.01803
  Kinetic  1044.81977  1044.82062   990.44599    -0.00000    -0.00000    -0.00016
  Fock        0.00000     0.00000     0.00000     0.00000     0.00000     0.00000
  -------------------------------------------------------------------------------------
  Total       0.05020     0.03970     0.10576    -0.00000     0.00000     0.01407
  in kB       0.50419     0.39874     1.06215    -0.00000     0.00001     0.14135
  external pressure =        0.66 kB  Pullay stress =        0.00 kB


 VOLUME and BASIS-vectors are now :
 -----------------------------------------------------------------------------
  energy-cutoff  :      520.00
  volume of cell :      159.53
      direct lattice vectors                 reciprocal lattice vectors
     3.574043013  0.000000006 -0.000000042     0.279795178 -0.000000001  0.000000003
     0.000000007  3.574042987 -0.000000007    -0.000000001  0.279795180  0.000000001
    -0.000000145 -0.000000025 12.488892887     0.000000001  0.000000000  0.080071149

  length of vectors
     3.574043013  3.574042987 12.488892887     0.279795178  0.279795180  0.080071149


 FORCES acting on ions
    electron-ion (+dipol)            ewald-force                    non-local-force                 convergence-correction
 -----------------------------------------------------------------------------------------------
   -.251E+00 0.917E-05 0.105E+02   0.220E+00 -.909E-05 -.110E+02   -.215E-01 0.902E-07 0.121E+00   -.555E-05 -.236E-06 -.574E-04
   0.496E-04 -.109E-04 -.152E+01   0.455E-03 0.107E-04 0.157E+01   -.357E-03 0.285E-06 -.388E-01   0.120E-06 -.563E-07 0.305E-04
   0.698E-02 0.161E-04 -.227E+02   -.553E-02 -.155E-04 0.202E+02   -.120E-02 -.692E-06 0.248E+01   0.152E-06 -.724E-07 0.580E-05
   0.677E-02 0.937E-05 0.200E+02   -.532E-02 -.924E-05 -.175E+02   -.119E-02 -.313E-06 -.249E+01   -.446E-06 0.831E-08 0.127E-04
   -.153E+00 0.518E-06 -.216E+02   0.154E+00 -.357E-06 0.191E+02   0.126E-02 -.443E-06 0.247E+01   0.468E-06 -.156E-06 -.559E-05
   -.157E+00 -.222E-04 0.212E+02   0.158E+00 0.213E-04 -.187E+02   0.147E-02 0.130E-05 -.250E+01   0.605E-06 0.144E-06 0.372E-07
   0.244E+00 0.890E-05 -.102E+03   -.268E+00 -.855E-05 0.113E+03   0.274E-01 -.542E-06 -.102E+02   -.193E-06 -.127E-08 -.808E-04
   0.234E+00 -.751E-06 0.976E+02   -.257E+00 0.705E-06 -.108E+03   0.265E-01 -.481E-07 0.101E+02   -.257E-06 -.110E-07 0.787E-04
   -.217E-02 -.607E-05 -.101E+03   0.165E-02 0.611E-05 0.111E+03   0.589E-03 0.340E-07 -.102E+02   0.974E-07 0.515E-07 -.792E-04
   -.225E-02 -.439E-05 0.993E+02   0.171E-02 0.385E-05 -.109E+03   0.600E-03 0.806E-06 0.101E+02   0.106E-06 0.619E-07 0.823E-04
 -----------------------------------------------------------------------------------------------
   -.652E-01 -.261E-06 0.927E-01   0.847E-14 0.549E-14 0.426E-13   0.336E-01 0.477E-06 -.926E-01   -.490E-05 -.267E-06 -.130E-04
 
 
 POSITION                                       TOTAL-FORCE (eV/Angst)
 -----------------------------------------------------------------------------------
      0.00275      0.00000      0.00962        -0.041531     -0.000000     -0.347475
      1.78702      1.78702      6.24445         0.003312      0.000000      0.008197
      0.00000      3.57404      4.21585         0.003424     -0.000000      0.011668
      0.00000      0.00000      8.27305         0.003422     -0.000000      0.011708
      1.78702      1.78702     10.46029         0.005357     -0.000000      0.015604
      1.78702      1.78702      2.02860         0.005412      0.000001      0.015592
      3.57404      0.00000      1.82057         0.007083     -0.000000      0.164319
      3.57404     -0.00000     10.66832         0.007055     -0.000000      0.149653
      1.78702      1.78702      8.06502         0.003232      0.000000     -0.011262
      1.78702      1.78702      4.42387         0.003233      0.000000     -0.018003
 -----------------------------------------------------------------------------------
    total drift:                               -0.031657     -0.000000      0.000023


--------------------------------------------------------------------------------------------------------



  FREE ENERGIE OF THE ION-ELECTRON SYSTEM (eV)
  ---------------------------------------------------
  free  energy   TOTEN  =      -111.54052402 eV

  energy  without entropy=     -111.54052402  energy(sigma->0) =     -111.54052402
 


--------------------------------------------------------------------------------------------------------


    POTLOK:  cpu time    0.9920: real time    0.9933


--------------------------------------------------------------------------------------------------------


     LOOP+:  cpu time  333.4557: real time  334.4564
    4ORBIT:  cpu time    0.0000: real time    0.0000
 


 total charge     
 
# of ion       s       p       d       tot
------------------------------------------
    1        0.694   0.643   9.761  11.098
    2        0.694   0.643   9.761  11.098
    3        2.040   5.872   0.276   8.188
    4        2.040   5.872   0.276   8.188
    5        2.040   5.872   0.275   8.188
    6        2.040   5.872   0.276   8.189
    7        1.255   2.425   0.000   3.680
    8        1.255   2.419   0.000   3.673
    9        1.255   2.422   0.000   3.677
   10        1.255   2.422   0.000   3.677
--------------------------------------------------
tot         14.569  34.463  20.624  69.656
 


 magnetization (x)
 
# of ion       s       p       d       tot
------------------------------------------
    1        0.000   0.000  -0.000   0.000
    2        0.000   0.000  -0.000   0.000
    3        0.000   0.000   0.000   0.000
    4        0.000   0.000   0.000   0.000
    5        0.000   0.000   0.000   0.000
    6        0.000   0.000   0.000   0.000
    7       -0.000  -0.000   0.000  -0.000
    8       -0.000  -0.000   0.000  -0.000
    9       -0.000  -0.000   0.000  -0.000
   10       -0.000  -0.000   0.000  -0.000
--------------------------------------------------
tot          0.000  -0.000   0.000  -0.000
 

 total amount of memory used by VASP MPI-rank0   111221. kBytes
=======================================================================

   base      :      30000. kBytes
   nonl-proj :      58361. kBytes
   fftplans  :        935. kBytes
   grid      :       3843. kBytes
   one-center:         93. kBytes
   wavefun   :      17989. kBytes
 
  
  
 General timing and accounting informations for this job:
 ========================================================
  
                  Total CPU time used (sec):      345.733
                            User time (sec):      336.157
                          System time (sec):        9.577
                         Elapsed time (sec):      347.235
  
                   Maximum memory used (kb):      182100.
                   Average memory used (kb):           0.
  
                          Minor page faults:        41916
                          Major page faults:            0
                 Voluntary context switches:          728
