 vasp.6.1.2 22Jul20 (build Apr 14 2021 21:39:43) complex                        
  
 executed on             LinuxIFC date 2022.12.02  18:21:37
 running on   64 total cores
 distrk:  each k-point on   64 cores,    1 groups
 distr:  one band on NCORE=   4 cores,   16 groups


--------------------------------------------------------------------------------------------------------


 INCAR:
 POTCAR:    PAW_PBE Sr_sv 07Sep2000               
 POTCAR:    PAW_PBE Zn 06Sep2000                  
 POTCAR:    PAW_PBE N 08Apr2002                   
 POTCAR:    PAW_PBE Sr_sv 07Sep2000               
   SHA256 =  a8389d3481648516ee67182ee030b298d280b37e29cbbf2d8595f040d757c710 Sr_sv/POTCAR          
   COPYR  = (c) Copyright 07Sep2000 Georg Kresse                                                    
   COPYR  = This file is part of the software VASP. Any use, copying, and all other rights are regul
   COPYR  = If you do not have a valid VASP license, you may not use, copy or distribute this file. 
   VRHFIN =Sr: 4s4p5s                                                                               
   LEXCH  = PE                                                                                      
   EATOM  =   843.0319 eV,   61.9611 Ry                                                             
                                                                                                    
   TITEL  = PAW_PBE Sr_sv 07Sep2000                                                                 
   LULTRA =        F    use ultrasoft PP ?                                                          
   IUNSCR =        1    unscreen: 0-lin 1-nonlin 2-no                                               
   RPACOR =    2.200    partial core radius                                                         
   POMASS =   87.620; ZVAL   =   10.000    mass and valenz                                          
   RCORE  =    2.500    outmost cutoff radius                                                       
   RWIGS  =    4.040; RWIGS  =    2.138    wigner-seitz radius (au A)                               
   ENMAX  =  229.353; ENMIN  =  172.014 eV                                                          
   RCLOC  =    2.201    cutoff for local pot                                                        
   LCOR   =        T    correct aug charges                                                         
   LPAW   =        T    paw PP                                                                      
   EAUG   =  366.804                                                                                
   DEXC   =    0.000                                                                                
   RMAX   =    2.547    core radius for proj-oper                                                   
   RAUG   =    1.300    factor for augmentation sphere                                              
   RDEP   =    2.562    radius for radial grids                                                     
   RDEPT  =    2.128    core radius for aug-charge                                                  
                                                                                                    
   Atomic configuration                                                                             
   10 entries                                                                                       
     n  l   j            E        occ.                                                              
     1  0  0.50    -15934.8930   2.0000                                                             
     2  0  0.50     -2157.6250   2.0000                                                             
     2  1  1.50     -1917.0034   6.0000                                                             
     3  0  0.50      -333.7288   2.0000                                                             
     3  1  1.50      -256.0992   6.0000                                                             
     3  2  2.50      -127.9971  10.0000                                                             
     4  0  0.50       -40.8953   2.0000                                                             
     5  0  0.50        -3.5257   1.9990                                                             
     4  1  1.50       -22.8179   6.0000                                                             
     4  2  1.50        -1.2815   0.0010                                                             
   Description                                                                                      
     l       E           TYP  RCUT    TYP  RCUT                                                     
     0    -40.8953213     23  2.480                                                                 
     0     -3.5257161     23  2.480                                                                 
     1    -22.8178632     23  2.500                                                                 
     1    -24.1784458     23  2.500                                                                 
     2     -1.2814598     23  2.500                                                                 
     2      0.2279365     23  2.500                                                                 
  local pseudopotential read in
  partial core-charges read in
  partial kinetic energy density read in
  atomic valenz-charges read in
  non local Contribution for L=           0  read in
    real space projection operators read in
  non local Contribution for L=           0  read in
    real space projection operators read in
  non local Contribution for L=           1  read in
    real space projection operators read in
  non local Contribution for L=           1  read in
    real space projection operators read in
  non local Contribution for L=           2  read in
    real space projection operators read in
  non local Contribution for L=           2  read in
    real space projection operators read in
    PAW grid and wavefunctions read in
 
   number of l-projection  operators is LMAX  =           6
   number of lm-projection operators is LMMAX =          18
 
 POTCAR:    PAW_PBE Zn 06Sep2000                  
   SHA256 =  501fddbd8274dd8e9725d4f3de27861d7f1e553a7e18441bc79fed8f346e7f23 Zn/POTCAR             
   COPYR  = (c) Copyright 06Sep2000 Georg Kresse                                                    
   COPYR  = This file is part of the software VASP. Any use, copying, and all other rights are regul
   COPYR  = If you do not have a valid VASP license, you may not use, copy or distribute this file. 
   VRHFIN =Zn: d10 p2                                                                               
   LEXCH  = PE                                                                                      
   EATOM  =  1748.8345 eV,  128.5357 Ry                                                             
                                                                                                    
   TITEL  = PAW_PBE Zn 06Sep2000                                                                    
   LULTRA =        F    use ultrasoft PP ?                                                          
   IUNSCR =        1    unscreen: 0-lin 1-nonlin 2-no                                               
   RPACOR =    2.000    partial core radius                                                         
   POMASS =   65.390; ZVAL   =   12.000    mass and valenz                                          
   RCORE  =    2.300    outmost cutoff radius                                                       
   RWIGS  =    2.400; RWIGS  =    1.270    wigner-seitz radius (au A)                               
   ENMAX  =  276.723; ENMIN  =  207.542 eV                                                          
   RCLOC  =    1.828    cutoff for local pot                                                        
   LCOR   =        T    correct aug charges                                                         
   LPAW   =        T    paw PP                                                                      
   EAUG   =  575.892                                                                                
   DEXC   =    0.000                                                                                
   RMAX   =    2.347    core radius for proj-oper                                                   
   RAUG   =    1.300    factor for augmentation sphere                                              
   RDEP   =    2.324    radius for radial grids                                                     
   RDEPT  =    1.788    core radius for aug-charge                                                  
                                                                                                    
   Atomic configuration                                                                             
    9 entries                                                                                       
     n  l   j            E        occ.                                                              
     1  0  0.50     -9524.6913   2.0000                                                             
     2  0  0.50     -1158.1882   2.0000                                                             
     2  1  1.50     -1003.8506   6.0000                                                             
     3  0  0.50      -129.2194   2.0000                                                             
     3  1  1.50       -83.3890   6.0000                                                             
     3  2  2.50       -10.1410  10.0000                                                             
     4  0  0.50        -5.9785   2.0000                                                             
     4  1  0.50        -4.0817   0.0000                                                             
     4  3  2.50        -1.3606   0.0000                                                             
   Description                                                                                      
     l       E           TYP  RCUT    TYP  RCUT                                                     
     2    -10.1410010     23  2.300                                                                 
     2    -11.5015836     23  2.300                                                                 
     0     -5.9785163     23  2.300                                                                 
     0      1.1858015     23  2.300                                                                 
     1     -2.7211652     23  2.300                                                                 
     1     13.2444212     23  2.300                                                                 
  local pseudopotential read in
  partial core-charges read in
  partial kinetic energy density read in
  atomic valenz-charges read in
  non local Contribution for L=           2  read in
    real space projection operators read in
  non local Contribution for L=           2  read in
    real space projection operators read in
  non local Contribution for L=           0  read in
    real space projection operators read in
  non local Contribution for L=           0  read in
    real space projection operators read in
  non local Contribution for L=           1  read in
    real space projection operators read in
  non local Contribution for L=           1  read in
    real space projection operators read in
    PAW grid and wavefunctions read in
 
   number of l-projection  operators is LMAX  =           6
   number of lm-projection operators is LMMAX =          18
 
 POTCAR:    PAW_PBE N 08Apr2002                   
   SHA256 =  e053789ff3a61a86a1b75d8a110fcc91f86041011e7b0817c7c99e4e8a6349d7 N/POTCAR              
   COPYR  = (c) Copyright 08Apr2002 Georg Kresse                                                    
   COPYR  = This file is part of the software VASP. Any use, copying, and all other rights are regul
   COPYR  = If you do not have a valid VASP license, you may not use, copy or distribute this file. 
   VRHFIN =N: s2p3                                                                                  
   LEXCH  = PE                                                                                      
   EATOM  =   264.5486 eV,   19.4438 Ry                                                             
                                                                                                    
   TITEL  = PAW_PBE N 08Apr2002                                                                     
   LULTRA =        F    use ultrasoft PP ?                                                          
   IUNSCR =        1    unscreen: 0-lin 1-nonlin 2-no                                               
   RPACOR =    1.200    partial core radius                                                         
   POMASS =   14.001; ZVAL   =    5.000    mass and valenz                                          
   RCORE  =    1.500    outmost cutoff radius                                                       
   RWIGS  =    1.400; RWIGS  =    0.741    wigner-seitz radius (au A)                               
   ENMAX  =  400.000; ENMIN  =  300.000 eV                                                          
   ICORE  =        2    local potential                                                             
   LCOR   =        T    correct aug charges                                                         
   LPAW   =        T    paw PP                                                                      
   EAUG   =  627.112                                                                                
   DEXC   =    0.000                                                                                
   RMAX   =    1.529    core radius for proj-oper                                                   
   RAUG   =    1.300    factor for augmentation sphere                                              
   RDEP   =    1.514    radius for radial grids                                                     
   RDEPT  =    1.338    core radius for aug-charge                                                  
                                                                                                    
   Atomic configuration                                                                             
    4 entries                                                                                       
     n  l   j            E        occ.                                                              
     1  0  0.50      -384.7179   2.0000                                                             
     2  0  0.50       -18.5828   2.0000                                                             
     2  1  0.50        -7.0898   3.0000                                                             
     3  2  1.50        -6.8029   0.0000                                                             
   Description                                                                                      
     l       E           TYP  RCUT    TYP  RCUT                                                     
     0    -18.5828119     23  1.200                                                                 
     0    -13.5018863     23  1.200                                                                 
     1     -7.0897853     23  1.500                                                                 
     1      9.5240782     23  1.500                                                                 
     2     -6.8029130      7  1.500                                                                 
  local pseudopotential read in
  partial core-charges read in
  partial kinetic energy density read in
  atomic valenz-charges read in
  non local Contribution for L=           0  read in
    real space projection operators read in
  non local Contribution for L=           0  read in
    real space projection operators read in
  non local Contribution for L=           1  read in
    real space projection operators read in
  non local Contribution for L=           1  read in
    real space projection operators read in
    PAW grid and wavefunctions read in
 
   number of l-projection  operators is LMAX  =           4
   number of lm-projection operators is LMMAX =           8
 
  PAW_PBE Sr_sv 07Sep2000               :
 energy of atom  1       EATOM= -843.0319
 kinetic energy error for atom=    0.0010 (will be added to EATOM!!)
  PAW_PBE Zn 06Sep2000                  :
 energy of atom  2       EATOM=-1748.8345
 kinetic energy error for atom=    0.0029 (will be added to EATOM!!)
  PAW_PBE N 08Apr2002                   :
 energy of atom  3       EATOM= -264.5486
 kinetic energy error for atom=    0.0125 (will be added to EATOM!!)
 
 
 POSCAR: generated by phonopy
  positions in direct lattice
  No initial velocities read in

 METAGGA = SCAN     LMAXTAU =  6    LMIXTAU =  F

 exchange correlation table for  LEXCH =        8
   RHO(1)=    0.500       N(1)  =     2000
   RHO(2)=  100.500       N(2)  =     4000
 


--------------------------------------------------------------------------------------------------------


 ion  position               nearest neighbor table
   1  0.000  1.000  0.342-   7 2.55  10 2.73  10 2.73  10 2.73  10 2.73   6 3.39   6 3.39   6 3.39
                             6 3.39   4 3.59   4 3.59   4 3.59   4 3.59   2 4.04
   2  0.000  0.000  0.658-   8 2.54   9 2.73   9 2.73   9 2.73   9 2.73   6 3.39   6 3.39   6 3.39
                             6 3.39   3 3.59   3 3.59   3 3.59   3 3.59   1 4.04
   3  0.500  0.500  0.842-   9 2.54   8 2.73   8 2.73   8 2.73   8 2.73   5 3.39   5 3.39   5 3.39
                             5 3.39   2 3.59   2 3.59   2 3.59   2 3.59   4 4.04
   4  0.500  0.500  0.158-  10 2.54   7 2.73   7 2.73   7 2.73   7 2.73   5 3.39   5 3.39   5 3.39
                             5 3.39   1 3.59   1 3.59   1 3.59   1 3.59   3 4.04
   5  1.000  0.000  0.000-   7 1.81   8 1.82   4 3.39   4 3.39   4 3.39   4 3.39   3 3.39   3 3.39
                             3 3.39   3 3.39
   6  0.500  0.500  0.500-  10 1.82   9 1.82   1 3.39   1 3.39   1 3.39   1 3.39   2 3.39   2 3.39
                             2 3.39   2 3.39
   7  0.999  0.000  0.142-   5 1.81   1 2.55   4 2.73   4 2.73   4 2.73   4 2.73
   8  1.000  0.000  0.857-   5 1.82   2 2.54   3 2.73   3 2.73   3 2.73   3 2.73
   9  0.500  0.500  0.643-   6 1.82   3 2.54   2 2.73   2 2.73   2 2.73   2 2.73
  10  0.500  0.500  0.357-   6 1.82   4 2.54   1 2.73   1 2.73   1 2.73   1 2.73
 

IMPORTANT INFORMATION: All symmetrisations will be switched off!
NOSYMM: (Re-)initialisation of all symmetry stuff for point group C_1.


----------------------------------------------------------------------------------------

                                     Primitive cell                                     

  volume of cell :     189.4114

  direct lattice vectors                    reciprocal lattice vectors
     3.851102821  0.000000006 -0.000000101     0.259665879 -0.000000000  0.000000007
     0.000000007  3.851102715 -0.000000006    -0.000000000  0.259665886  0.000000000
    -0.000000333 -0.000000021 12.771321364     0.000000002  0.000000000  0.078300434

  length of vectors
     3.851102821  3.851102715 12.771321364     0.259665879  0.259665886  0.078300434

  position of ions in fractional coordinates (direct lattice)
     0.000000015  0.999999969  0.341862114
     0.000000070  0.000000002  0.658137891
     0.500000049  0.500000008  0.841862095
     0.500000072  0.499999952  0.158137898
     0.999999990  0.000000014  0.000000255
     0.499999982  0.500000015  0.499999745
     0.999250306  0.000000005  0.141917295
     0.999999949  0.000000014  0.857332824
     0.499999967  0.500000003  0.642667132
     0.499999936  0.500000017  0.357333087

  ion indices of the primitive-cell ions
   primitive index   ion index
                 1           1
                 2           2
                 3           3
                 4           4
                 5           5
                 6           6
                 7           7
                 8           8
                 9           9
                10          10

----------------------------------------------------------------------------------------

 
 
 KPOINTS: Kpoints                                 

Automatic generation of k-mesh.
 generate k-points for:    8    8    3
Space group operators:
 irot       det(A)        alpha          n_x          n_y          n_z        tau_x        tau_y        tau_z
    1     1.000000     0.000000     1.000000     0.000000     0.000000     0.000000     0.000000     0.000000
 
 Subroutine IBZKPT returns following result:
 ===========================================
 
 Found     98 irreducible k-points:
 
 Following reciprocal coordinates:
            Coordinates               Weight
  0.000000  0.000000  0.000000      1.000000
  0.125000  0.000000  0.000000      2.000000
  0.000000  0.125000  0.000000      2.000000
  0.250000  0.000000  0.000000      2.000000
  0.000000  0.250000  0.000000      2.000000
  0.375000 -0.000000  0.000000      2.000000
  0.000000  0.375000 -0.000000      2.000000
  0.500000  0.000000  0.000000      1.000000
  0.000000  0.500000 -0.000000      1.000000
  0.125000  0.125000  0.000000      2.000000
 -0.125000  0.125000  0.000000      2.000000
  0.250000  0.125000  0.000000      2.000000
 -0.125000  0.250000  0.000000      2.000000
 -0.250000  0.125000  0.000000      2.000000
  0.125000  0.250000  0.000000      2.000000
  0.375000  0.125000  0.000000      2.000000
 -0.125000  0.375000 -0.000000      2.000000
 -0.375000  0.125000  0.000000      2.000000
  0.125000  0.375000 -0.000000      2.000000
  0.500000  0.125000  0.000000      2.000000
 -0.125000  0.500000 -0.000000      2.000000
  0.250000  0.250000  0.000000      2.000000
 -0.250000  0.250000  0.000000      2.000000
  0.375000  0.250000  0.000000      2.000000
 -0.250000  0.375000 -0.000000      2.000000
 -0.375000  0.250000  0.000000      2.000000
  0.250000  0.375000 -0.000000      2.000000
  0.500000  0.250000  0.000000      2.000000
 -0.250000  0.500000 -0.000000      2.000000
  0.375000  0.375000 -0.000000      2.000000
 -0.375000  0.375000 -0.000000      2.000000
  0.500000  0.375000 -0.000000      2.000000
 -0.375000  0.500000 -0.000000      2.000000
  0.500000  0.500000 -0.000000      1.000000
  0.000000  0.000000  0.333333      2.000000
  0.125000 -0.000000  0.333333      2.000000
 -0.000000  0.125000  0.333333      2.000000
 -0.125000 -0.000000  0.333333      2.000000
 -0.000000 -0.125000  0.333333      2.000000
  0.250000  0.000000  0.333333      2.000000
 -0.000000  0.250000  0.333333      2.000000
 -0.250000  0.000000  0.333333      2.000000
  0.000000 -0.250000  0.333333      2.000000
  0.375000 -0.000000  0.333333      2.000000
  0.000000  0.375000  0.333333      2.000000
 -0.375000  0.000000  0.333333      2.000000
  0.000000 -0.375000  0.333333      2.000000
  0.500000  0.000000  0.333333      2.000000
 -0.000000  0.500000  0.333333      2.000000
  0.125000  0.125000  0.333333      2.000000
 -0.125000  0.125000  0.333333      2.000000
 -0.125000 -0.125000  0.333333      2.000000
  0.125000 -0.125000  0.333333      2.000000
  0.250000  0.125000  0.333333      2.000000
 -0.125000  0.250000  0.333333      2.000000
 -0.250000 -0.125000  0.333333      2.000000
  0.125000 -0.250000  0.333333      2.000000
 -0.250000  0.125000 -0.333333      2.000000
  0.125000  0.250000 -0.333333      2.000000
  0.250000 -0.125000 -0.333333      2.000000
 -0.125000 -0.250000 -0.333333      2.000000
  0.375000  0.125000  0.333333      2.000000
 -0.125000  0.375000  0.333333      2.000000
 -0.375000 -0.125000  0.333333      2.000000
  0.125000 -0.375000  0.333333      2.000000
 -0.375000  0.125000 -0.333333      2.000000
  0.125000  0.375000 -0.333333      2.000000
  0.375000 -0.125000 -0.333333      2.000000
 -0.125000 -0.375000 -0.333333      2.000000
  0.500000  0.125000  0.333333      2.000000
 -0.125000  0.500000  0.333333      2.000000
  0.500000 -0.125000  0.333333      2.000000
  0.125000  0.500000  0.333333      2.000000
  0.250000  0.250000  0.333333      2.000000
 -0.250000  0.250000  0.333333      2.000000
 -0.250000 -0.250000  0.333333      2.000000
  0.250000 -0.250000  0.333333      2.000000
  0.375000  0.250000  0.333333      2.000000
 -0.250000  0.375000  0.333333      2.000000
 -0.375000 -0.250000  0.333333      2.000000
  0.250000 -0.375000  0.333333      2.000000
 -0.375000  0.250000 -0.333333      2.000000
  0.250000  0.375000 -0.333333      2.000000
  0.375000 -0.250000 -0.333333      2.000000
 -0.250000 -0.375000 -0.333333      2.000000
  0.500000  0.250000  0.333333      2.000000
 -0.250000  0.500000  0.333333      2.000000
  0.500000 -0.250000  0.333333      2.000000
  0.250000  0.500000  0.333333      2.000000
  0.375000  0.375000  0.333333      2.000000
 -0.375000  0.375000  0.333333      2.000000
 -0.375000 -0.375000  0.333333      2.000000
  0.375000 -0.375000  0.333333      2.000000
  0.500000  0.375000  0.333333      2.000000
 -0.375000  0.500000  0.333333      2.000000
  0.500000 -0.375000  0.333333      2.000000
  0.375000  0.500000  0.333333      2.000000
  0.500000  0.500000  0.333333      2.000000
 
 Following cartesian coordinates:
            Coordinates               Weight
  0.000000  0.000000  0.000000      1.000000
  0.032458 -0.000000  0.000000      2.000000
 -0.000000  0.032458  0.000000      2.000000
  0.064916 -0.000000  0.000000      2.000000
 -0.000000  0.064916  0.000000      2.000000
  0.097375 -0.000000  0.000000      2.000000
 -0.000000  0.097375  0.000000      2.000000
  0.129833 -0.000000  0.000000      1.000000
 -0.000000  0.129833  0.000000      1.000000
  0.032458  0.032458  0.000000      2.000000
 -0.032458  0.032458 -0.000000      2.000000
  0.064916  0.032458  0.000000      2.000000
 -0.032458  0.064916 -0.000000      2.000000
 -0.064916  0.032458 -0.000000      2.000000
  0.032458  0.064916  0.000000      2.000000
  0.097375  0.032458  0.000000      2.000000
 -0.032458  0.097375 -0.000000      2.000000
 -0.097375  0.032458 -0.000000      2.000000
  0.032458  0.097375  0.000000      2.000000
  0.129833  0.032458  0.000000      2.000000
 -0.032458  0.129833 -0.000000      2.000000
  0.064916  0.064916  0.000000      2.000000
 -0.064916  0.064916 -0.000000      2.000000
  0.097375  0.064916  0.000000      2.000000
 -0.064916  0.097375 -0.000000      2.000000
 -0.097375  0.064916 -0.000000      2.000000
  0.064916  0.097375  0.000000      2.000000
  0.129833  0.064916  0.000000      2.000000
 -0.064916  0.129833 -0.000000      2.000000
  0.097375  0.097375  0.000000      2.000000
 -0.097375  0.097375 -0.000000      2.000000
  0.129833  0.097375  0.000000      2.000000
 -0.097375  0.129833 -0.000000      2.000000
  0.129833  0.129833  0.000000      1.000000
  0.000000  0.000000  0.026100      2.000000
  0.032458 -0.000000  0.026100      2.000000
  0.000000  0.032458  0.026100      2.000000
 -0.032458  0.000000  0.026100      2.000000
  0.000000 -0.032458  0.026100      2.000000
  0.064916 -0.000000  0.026100      2.000000
  0.000000  0.064916  0.026100      2.000000
 -0.064916  0.000000  0.026100      2.000000
  0.000000 -0.064916  0.026100      2.000000
  0.097375 -0.000000  0.026100      2.000000
  0.000000  0.097375  0.026100      2.000000
 -0.097375  0.000000  0.026100      2.000000
  0.000000 -0.097375  0.026100      2.000000
  0.129833 -0.000000  0.026100      2.000000
  0.000000  0.129833  0.026100      2.000000
  0.032458  0.032458  0.026100      2.000000
 -0.032458  0.032458  0.026100      2.000000
 -0.032458 -0.032458  0.026100      2.000000
  0.032458 -0.032458  0.026100      2.000000
  0.064916  0.032458  0.026100      2.000000
 -0.032458  0.064916  0.026100      2.000000
 -0.064916 -0.032458  0.026100      2.000000
  0.032458 -0.064916  0.026100      2.000000
 -0.064916  0.032458 -0.026100      2.000000
  0.032458  0.064916 -0.026100      2.000000
  0.064916 -0.032458 -0.026100      2.000000
 -0.032458 -0.064916 -0.026100      2.000000
  0.097375  0.032458  0.026100      2.000000
 -0.032458  0.097375  0.026100      2.000000
 -0.097375 -0.032458  0.026100      2.000000
  0.032458 -0.097375  0.026100      2.000000
 -0.097375  0.032458 -0.026100      2.000000
  0.032458  0.097375 -0.026100      2.000000
  0.097375 -0.032458 -0.026100      2.000000
 -0.032458 -0.097375 -0.026100      2.000000
  0.129833  0.032458  0.026100      2.000000
 -0.032458  0.129833  0.026100      2.000000
  0.129833 -0.032458  0.026100      2.000000
  0.032458  0.129833  0.026100      2.000000
  0.064916  0.064916  0.026100      2.000000
 -0.064916  0.064916  0.026100      2.000000
 -0.064916 -0.064916  0.026100      2.000000
  0.064916 -0.064916  0.026100      2.000000
  0.097375  0.064916  0.026100      2.000000
 -0.064916  0.097375  0.026100      2.000000
 -0.097375 -0.064916  0.026100      2.000000
  0.064916 -0.097375  0.026100      2.000000
 -0.097375  0.064916 -0.026100      2.000000
  0.064916  0.097375 -0.026100      2.000000
  0.097375 -0.064916 -0.026100      2.000000
 -0.064916 -0.097375 -0.026100      2.000000
  0.129833  0.064916  0.026100      2.000000
 -0.064916  0.129833  0.026100      2.000000
  0.129833 -0.064916  0.026100      2.000000
  0.064916  0.129833  0.026100      2.000000
  0.097375  0.097375  0.026100      2.000000
 -0.097375  0.097375  0.026100      2.000000
 -0.097375 -0.097375  0.026100      2.000000
  0.097375 -0.097375  0.026100      2.000000
  0.129833  0.097375  0.026100      2.000000
 -0.097375  0.129833  0.026100      2.000000
  0.129833 -0.097375  0.026100      2.000000
  0.097375  0.129833  0.026100      2.000000
  0.129833  0.129833  0.026100      2.000000
 


--------------------------------------------------------------------------------------------------------




 Dimension of arrays:
   k-points           NKPTS =     98   k-points in BZ     NKDIM =     98   number of bands    NBANDS=     64
   number of dos      NEDOS =    301   number of ions     NIONS =     10
   non local maximal  LDIM  =      6   non local SUM 2l+1 LMDIM =     18
   total plane-waves  NPLWV =  86400
   max r-space proj   IRMAX =      1   max aug-charges    IRDMAX=  26943
   dimension x,y,z NGX =    30 NGY =   30 NGZ =   96
   dimension x,y,z NGXF=    60 NGYF=   60 NGZF=  192
   support grid    NGXF=    60 NGYF=   60 NGZF=  192
   ions per type =               4   2   4
   NGX,Y,Z   is equivalent  to a cutoff of  12.95, 12.95, 12.50 a.u.
   NGXF,Y,Z  is equivalent  to a cutoff of  25.90, 25.90, 24.99 a.u.

 SYSTEM =  unknown system                          
 POSCAR =  generated by phonopy                    

 Startparameter for this run:
   NWRITE =      2    write-flag & timer
   PREC   = accura    normal or accurate (medium, high low for compatibility)
   ISTART =      0    job   : 0-new  1-cont  2-samecut
   ICHARG =      2    charge: 1-file 2-atom 10-const
   ISPIN  =      2    spin polarized calculation?
   LNONCOLLINEAR =      F non collinear calculations
   LSORBIT =      F    spin-orbit coupling
   INIWAV =      1    electr: 0-lowe 1-rand  2-diag
   LASPH  =      T    aspherical Exc in radial PAW
   METAGGA=      F    non-selfconsistent MetaGGA calc.

 Electronic Relaxation 1
   ENCUT  =  520.0 eV  38.22 Ry    6.18 a.u.   7.16  7.16 23.75*2*pi/ulx,y,z
   ENINI  =  520.0     initial cutoff
   ENAUG  =  627.1 eV  augmentation charge cutoff
   NELM   =    200;   NELMIN=  6; NELMDL= -5     # of ELM steps 
   EDIFF  = 0.1E-05   stopping-criterion for ELM
   LREAL  =      F    real-space projection
   NLSPLINE    = F    spline interpolate recip. space projectors
   LCOMPAT=      F    compatible to vasp.4.4
   GGA_COMPAT  = T    GGA compatible to vasp.4.4-vasp.4.6
   LMAXPAW     = -100 max onsite density
   LMAXMIX     =    2 max onsite mixed and CHGCAR
   VOSKOWN=      0    Vosko Wilk Nusair interpolation
   ROPT   =    0.00000   0.00000   0.00000
 Ionic relaxation
   EDIFFG = -.3E-01   stopping-criterion for IOM
   NSW    =      0    number of steps for IOM
   NBLOCK =      1;   KBLOCK =      1    inner block; outer block 
   IBRION =     -1    ionic relax: 0-MD 1-quasi-New 2-CG
   NFREE  =      0    steps in history (QN), initial steepest desc. (CG)
   ISIF   =      2    stress and relaxation
   IWAVPR =     10    prediction:  0-non 1-charg 2-wave 3-comb
   ISYM   =      0    0-nonsym 1-usesym 2-fastsym
   LCORR  =      T    Harris-Foulkes like correction to forces

   POTIM  = 0.5000    time-step for ionic-motion
   TEIN   =    0.0    initial temperature
   TEBEG  =    0.0;   TEEND  =   0.0 temperature during run
   SMASS  =  -3.00    Nose mass-parameter (am)
   estimated Nose-frequenzy (Omega)   =  0.10E-29 period in steps = 0.13E+47 mass=  -0.339E-27a.u.
   SCALEE = 1.0000    scale energy and forces
   NPACO  =    256;   APACO  = 16.0  distance and # of slots for P.C.
   PSTRESS=    0.0 pullay stress

  Mass of Ions in am
   POMASS =  87.62 65.39 14.00
  Ionic Valenz
   ZVAL   =  10.00 12.00  5.00
  Atomic Wigner-Seitz radii
   RWIGS  =  -1.00 -1.00 -1.00
  virtual crystal weights 
   VCA    =   1.00  1.00  1.00
   NELECT =      84.0000    total number of electrons
   NUPDOWN=      -1.0000    fix difference up-down

 DOS related values:
   EMIN   =  10.00;   EMAX   =-10.00  energy-range for DOS
   EFERMI =   0.00
   ISMEAR =     0;   SIGMA  =   0.05  broadening in eV -4-tet -1-fermi 0-gaus

 Electronic relaxation 2 (details)
   IALGO  =     38    algorithm
   LDIAG  =      T    sub-space diagonalisation (order eigenvalues)
   LSUBROT=      F    optimize rotation matrix (better conditioning)
   TURBO    =      0    0=normal 1=particle mesh
   IRESTART =      0    0=no restart 2=restart with 2 vectors
   NREBOOT  =      0    no. of reboots
   NMIN     =      0    reboot dimension
   EREF     =   0.00    reference energy to select bands
   IMIX   =      4    mixing-type and parameters
     AMIX     =   0.40;   BMIX     =  1.00
     AMIX_MAG =   1.60;   BMIX_MAG =  1.00
     AMIN     =   0.10
     WC   =   100.;   INIMIX=   1;  MIXPRE=   1;  MAXMIX= -45

 Intra band minimization:
   WEIMIN = 0.0000     energy-eigenvalue tresh-hold
   EBREAK =  0.39E-08  absolut break condition
   DEPER  =   0.30     relativ break condition  

   TIME   =   0.40     timestep for ELM

  volume/ion in A,a.u.               =      18.94       127.82
  Fermi-wavevector in a.u.,A,eV,Ry     =   1.248435  2.359200 21.205901  1.558590
  Thomas-Fermi vector in A             =   2.382522
 
 Write flags
   LWAVE        =      F    write WAVECAR
   LDOWNSAMPLE  =      F    k-point downsampling of WAVECAR
   LCHARG       =      F    write CHGCAR
   LVTOT        =      F    write LOCPOT, total local potential
   LVHAR        =      F    write LOCPOT, Hartree potential only
   LELF         =      F    write electronic localiz. function (ELF)
   LORBIT       =     11    0 simple, 1 ext, 2 COOP (PROOUT), +10 PAW based schemes


 Dipole corrections
   LMONO  =      F    monopole corrections only (constant potential shift)
   LDIPOL =      F    correct potential (dipole corrections)
   IDIPOL =      0    1-x, 2-y, 3-z, 4-all directions 
   EPSILON=  1.0000000 bulk dielectric constant

 Exchange correlation treatment:
   GGA     =    --    GGA type
   LEXCH   =     8    internal setting for exchange type
   VOSKOWN=      0    Vosko Wilk Nusair interpolation
   LHFCALC =     F    Hartree Fock is set to
   LHFONE  =     F    Hartree Fock one center treatment
   AEXX    =    0.0000 exact exchange contribution

 Linear response parameters
   LEPSILON=     F    determine dielectric tensor
   LRPA    =     F    only Hartree local field effects (RPA)
   LNABLA  =     F    use nabla operator in PAW spheres
   LVEL    =     F    velocity operator in full k-point grid
   LINTERFAST=   F  fast interpolation
   KINTER  =     0    interpolate to denser k-point grid
   CSHIFT  =0.1000    complex shift for real part using Kramers Kronig
   OMEGAMAX=  -1.0    maximum frequency
   DEG_THRESHOLD= 0.2000000E-02 threshold for treating states as degnerate
   RTIME   =   -0.100 relaxation time in fs
  (WPLASMAI=    0.000 imaginary part of plasma frequency in eV, 0.658/RTIME)
   DFIELD  = 0.0000000 0.0000000 0.0000000 field for delta impulse in time
 
 Orbital magnetization related:
   ORBITALMAG=     F  switch on orbital magnetization
   LCHIMAG   =     F  perturbation theory with respect to B field
   DQ        =  0.001000  dq finite difference perturbation B field
   LLRAUG    =     F  two centre corrections for induced B field



--------------------------------------------------------------------------------------------------------


 Static calculation
 charge density and potential will be updated during run
 spin polarized calculation
 Variant of blocked Davidson
 Davidson routine will perform the subspace rotation
 perform sub-space diagonalisation
    after iterative eigenvector-optimisation
 modified Broyden-mixing scheme, WC =      100.0
 initial mixing is a Kerker type mixing with AMIX =  0.4000 and BMIX =      1.0000
 Hartree-type preconditioning will be used
 using additional bands           22
 reciprocal scheme for non local part
 use partial core corrections
 calculate Harris-corrections to forces 
   (improved forces if not selfconsistent)
 use gradient corrections 
 use of overlap-Matrix (Vanderbilt PP)
 Gauss-broadening in eV      SIGMA  =   0.05


--------------------------------------------------------------------------------------------------------


  energy-cutoff  :      520.00
  volume of cell :      189.41
      direct lattice vectors                 reciprocal lattice vectors
     3.851102821  0.000000006 -0.000000101     0.259665879 -0.000000000  0.000000007
     0.000000007  3.851102715 -0.000000006    -0.000000000  0.259665886  0.000000000
    -0.000000333 -0.000000021 12.771321364     0.000000002  0.000000000  0.078300434

  length of vectors
     3.851102821  3.851102715 12.771321364     0.259665879  0.259665886  0.078300434


 
 k-points in units of 2pi/SCALE and weight: Kpoints                                 
   0.00000000  0.00000000  0.00000000       0.005
   0.03245823 -0.00000000  0.00000000       0.010
  -0.00000000  0.03245824  0.00000000       0.010
   0.06491647 -0.00000000  0.00000000       0.010
  -0.00000000  0.06491647  0.00000000       0.010
   0.09737470 -0.00000000  0.00000000       0.010
  -0.00000000  0.09737471  0.00000000       0.010
   0.12983294 -0.00000000  0.00000000       0.005
  -0.00000000  0.12983294  0.00000000       0.005
   0.03245823  0.03245824  0.00000000       0.010
  -0.03245823  0.03245824 -0.00000000       0.010
   0.06491647  0.03245824  0.00000000       0.010
  -0.03245824  0.06491647 -0.00000000       0.010
  -0.06491647  0.03245824 -0.00000000       0.010
   0.03245823  0.06491647  0.00000000       0.010
   0.09737470  0.03245824  0.00000000       0.010
  -0.03245824  0.09737471 -0.00000000       0.010
  -0.09737470  0.03245824 -0.00000000       0.010
   0.03245823  0.09737471  0.00000000       0.010
   0.12983294  0.03245824  0.00000000       0.010
  -0.03245824  0.12983294 -0.00000000       0.010
   0.06491647  0.06491647  0.00000000       0.010
  -0.06491647  0.06491647 -0.00000000       0.010
   0.09737470  0.06491647  0.00000000       0.010
  -0.06491647  0.09737471 -0.00000000       0.010
  -0.09737470  0.06491647 -0.00000000       0.010
   0.06491647  0.09737471  0.00000000       0.010
   0.12983294  0.06491647  0.00000000       0.010
  -0.06491647  0.12983294 -0.00000000       0.010
   0.09737470  0.09737471  0.00000000       0.010
  -0.09737470  0.09737471 -0.00000000       0.010
   0.12983294  0.09737471  0.00000000       0.010
  -0.09737470  0.12983294 -0.00000000       0.010
   0.12983294  0.12983294  0.00000000       0.005
   0.00000000  0.00000000  0.02610014       0.010
   0.03245824 -0.00000000  0.02610015       0.010
   0.00000000  0.03245824  0.02610014       0.010
  -0.03245823  0.00000000  0.02610014       0.010
   0.00000000 -0.03245824  0.02610014       0.010
   0.06491647 -0.00000000  0.02610015       0.010
   0.00000000  0.06491647  0.02610014       0.010
  -0.06491647  0.00000000  0.02610014       0.010
   0.00000000 -0.06491647  0.02610014       0.010
   0.09737471 -0.00000000  0.02610015       0.010
   0.00000000  0.09737471  0.02610014       0.010
  -0.09737470  0.00000000  0.02610014       0.010
   0.00000000 -0.09737471  0.02610014       0.010
   0.12983294 -0.00000000  0.02610015       0.010
   0.00000000  0.12983294  0.02610014       0.010
   0.03245824  0.03245824  0.02610015       0.010
  -0.03245823  0.03245824  0.02610014       0.010
  -0.03245823 -0.03245824  0.02610014       0.010
   0.03245824 -0.03245824  0.02610015       0.010
   0.06491647  0.03245824  0.02610015       0.010
  -0.03245823  0.06491647  0.02610014       0.010
  -0.06491647 -0.03245824  0.02610014       0.010
   0.03245824 -0.06491647  0.02610015       0.010
  -0.06491647  0.03245824 -0.02610015       0.010
   0.03245823  0.06491647 -0.02610014       0.010
   0.06491647 -0.03245824 -0.02610014       0.010
  -0.03245824 -0.06491647 -0.02610015       0.010
   0.09737471  0.03245824  0.02610015       0.010
  -0.03245823  0.09737471  0.02610014       0.010
  -0.09737470 -0.03245824  0.02610014       0.010
   0.03245824 -0.09737471  0.02610015       0.010
  -0.09737471  0.03245824 -0.02610015       0.010
   0.03245823  0.09737471 -0.02610014       0.010
   0.09737470 -0.03245824 -0.02610014       0.010
  -0.03245824 -0.09737471 -0.02610015       0.010
   0.12983294  0.03245824  0.02610015       0.010
  -0.03245823  0.12983294  0.02610014       0.010
   0.12983294 -0.03245824  0.02610015       0.010
   0.03245824  0.12983294  0.02610015       0.010
   0.06491647  0.06491647  0.02610015       0.010
  -0.06491647  0.06491647  0.02610014       0.010
  -0.06491647 -0.06491647  0.02610014       0.010
   0.06491647 -0.06491647  0.02610015       0.010
   0.09737471  0.06491647  0.02610015       0.010
  -0.06491647  0.09737471  0.02610014       0.010
  -0.09737470 -0.06491647  0.02610014       0.010
   0.06491647 -0.09737471  0.02610015       0.010
  -0.09737471  0.06491647 -0.02610015       0.010
   0.06491647  0.09737471 -0.02610014       0.010
   0.09737470 -0.06491647 -0.02610014       0.010
  -0.06491647 -0.09737471 -0.02610015       0.010
   0.12983294  0.06491647  0.02610015       0.010
  -0.06491647  0.12983294  0.02610014       0.010
   0.12983294 -0.06491647  0.02610015       0.010
   0.06491647  0.12983294  0.02610015       0.010
   0.09737471  0.09737471  0.02610015       0.010
  -0.09737470  0.09737471  0.02610014       0.010
  -0.09737470 -0.09737471  0.02610014       0.010
   0.09737471 -0.09737471  0.02610015       0.010
   0.12983294  0.09737471  0.02610015       0.010
  -0.09737470  0.12983294  0.02610014       0.010
   0.12983294 -0.09737471  0.02610015       0.010
   0.09737471  0.12983294  0.02610015       0.010
   0.12983294  0.12983294  0.02610015       0.010
 
 k-points in reciprocal lattice and weights: Kpoints                                 
   0.00000000  0.00000000  0.00000000       0.005
   0.12500000  0.00000000  0.00000000       0.010
   0.00000000  0.12500000  0.00000000       0.010
   0.25000000  0.00000000  0.00000000       0.010
   0.00000000  0.25000000  0.00000000       0.010
   0.37500000 -0.00000000  0.00000000       0.010
   0.00000000  0.37500000 -0.00000000       0.010
   0.50000000  0.00000000  0.00000000       0.005
   0.00000000  0.50000000 -0.00000000       0.005
   0.12500000  0.12500000  0.00000000       0.010
  -0.12500000  0.12500000  0.00000000       0.010
   0.25000000  0.12500000  0.00000000       0.010
  -0.12500000  0.25000000  0.00000000       0.010
  -0.25000000  0.12500000  0.00000000       0.010
   0.12500000  0.25000000  0.00000000       0.010
   0.37500000  0.12500000  0.00000000       0.010
  -0.12500000  0.37500000 -0.00000000       0.010
  -0.37500000  0.12500000  0.00000000       0.010
   0.12500000  0.37500000 -0.00000000       0.010
   0.50000000  0.12500000  0.00000000       0.010
  -0.12500000  0.50000000 -0.00000000       0.010
   0.25000000  0.25000000  0.00000000       0.010
  -0.25000000  0.25000000  0.00000000       0.010
   0.37500000  0.25000000  0.00000000       0.010
  -0.25000000  0.37500000 -0.00000000       0.010
  -0.37500000  0.25000000  0.00000000       0.010
   0.25000000  0.37500000 -0.00000000       0.010
   0.50000000  0.25000000  0.00000000       0.010
  -0.25000000  0.50000000 -0.00000000       0.010
   0.37500000  0.37500000 -0.00000000       0.010
  -0.37500000  0.37500000 -0.00000000       0.010
   0.50000000  0.37500000 -0.00000000       0.010
  -0.37500000  0.50000000 -0.00000000       0.010
   0.50000000  0.50000000 -0.00000000       0.005
   0.00000000  0.00000000  0.33333333       0.010
   0.12500000 -0.00000000  0.33333333       0.010
  -0.00000000  0.12500000  0.33333333       0.010
  -0.12500000 -0.00000000  0.33333333       0.010
  -0.00000000 -0.12500000  0.33333333       0.010
   0.25000000  0.00000000  0.33333333       0.010
  -0.00000000  0.25000000  0.33333333       0.010
  -0.25000000  0.00000000  0.33333333       0.010
   0.00000000 -0.25000000  0.33333333       0.010
   0.37500000 -0.00000000  0.33333333       0.010
   0.00000000  0.37500000  0.33333333       0.010
  -0.37500000  0.00000000  0.33333333       0.010
   0.00000000 -0.37500000  0.33333333       0.010
   0.50000000  0.00000000  0.33333333       0.010
  -0.00000000  0.50000000  0.33333333       0.010
   0.12500000  0.12500000  0.33333333       0.010
  -0.12500000  0.12500000  0.33333333       0.010
  -0.12500000 -0.12500000  0.33333333       0.010
   0.12500000 -0.12500000  0.33333333       0.010
   0.25000000  0.12500000  0.33333333       0.010
  -0.12500000  0.25000000  0.33333333       0.010
  -0.25000000 -0.12500000  0.33333333       0.010
   0.12500000 -0.25000000  0.33333333       0.010
  -0.25000000  0.12500000 -0.33333333       0.010
   0.12500000  0.25000000 -0.33333333       0.010
   0.25000000 -0.12500000 -0.33333333       0.010
  -0.12500000 -0.25000000 -0.33333333       0.010
   0.37500000  0.12500000  0.33333333       0.010
  -0.12500000  0.37500000  0.33333333       0.010
  -0.37500000 -0.12500000  0.33333333       0.010
   0.12500000 -0.37500000  0.33333333       0.010
  -0.37500000  0.12500000 -0.33333333       0.010
   0.12500000  0.37500000 -0.33333333       0.010
   0.37500000 -0.12500000 -0.33333333       0.010
  -0.12500000 -0.37500000 -0.33333333       0.010
   0.50000000  0.12500000  0.33333333       0.010
  -0.12500000  0.50000000  0.33333333       0.010
   0.50000000 -0.12500000  0.33333333       0.010
   0.12500000  0.50000000  0.33333333       0.010
   0.25000000  0.25000000  0.33333333       0.010
  -0.25000000  0.25000000  0.33333333       0.010
  -0.25000000 -0.25000000  0.33333333       0.010
   0.25000000 -0.25000000  0.33333333       0.010
   0.37500000  0.25000000  0.33333333       0.010
  -0.25000000  0.37500000  0.33333333       0.010
  -0.37500000 -0.25000000  0.33333333       0.010
   0.25000000 -0.37500000  0.33333333       0.010
  -0.37500000  0.25000000 -0.33333333       0.010
   0.25000000  0.37500000 -0.33333333       0.010
   0.37500000 -0.25000000 -0.33333333       0.010
  -0.25000000 -0.37500000 -0.33333333       0.010
   0.50000000  0.25000000  0.33333333       0.010
  -0.25000000  0.50000000  0.33333333       0.010
   0.50000000 -0.25000000  0.33333333       0.010
   0.25000000  0.50000000  0.33333333       0.010
   0.37500000  0.37500000  0.33333333       0.010
  -0.37500000  0.37500000  0.33333333       0.010
  -0.37500000 -0.37500000  0.33333333       0.010
   0.37500000 -0.37500000  0.33333333       0.010
   0.50000000  0.37500000  0.33333333       0.010
  -0.37500000  0.50000000  0.33333333       0.010
   0.50000000 -0.37500000  0.33333333       0.010
   0.37500000  0.50000000  0.33333333       0.010
   0.50000000  0.50000000  0.33333333       0.010
 
 position of ions in fractional coordinates (direct lattice) 
   0.00000002  0.99999997  0.34186211
   0.00000007  0.00000000  0.65813789
   0.50000005  0.50000001  0.84186210
   0.50000007  0.49999995  0.15813790
   0.99999999  0.00000001  0.00000025
   0.49999998  0.50000002  0.49999974
   0.99925031  0.00000001  0.14191729
   0.99999995  0.00000001  0.85733282
   0.49999997  0.50000000  0.64266713
   0.49999994  0.50000002  0.35733309
 
 position of ions in cartesian coordinates  (Angst):
  -0.00000005  3.85110259  4.36603091
   0.00000005 -0.00000001  8.40529051
   1.92555132  1.92555137 10.75169131
   1.92555164  1.92555117  2.01962986
   3.85110278  0.00000006  0.00000315
   1.92555118  1.92555141  6.38565737
   3.84821563  0.00000002  1.81247128
   3.85110234  0.00000004 10.94927291
   1.92555107  1.92555136  8.20770842
   1.92555105  1.92555142  4.56361564
 


--------------------------------------------------------------------------------------------------------


 k-point   1 :   0.0000 0.0000 0.0000  plane waves:    5047
 k-point   2 :   0.1250 0.0000 0.0000  plane waves:    5075
 k-point   3 :   0.0000 0.1250 0.0000  plane waves:    5075
 k-point   4 :   0.2500 0.0000 0.0000  plane waves:    5094
 k-point   5 :   0.0000 0.2500 0.0000  plane waves:    5094
 k-point   6 :   0.3750-0.0000 0.0000  plane waves:    5118
 k-point   7 :   0.0000 0.3750-0.0000  plane waves:    5118
 k-point   8 :   0.5000 0.0000 0.0000  plane waves:    5078
 k-point   9 :   0.0000 0.5000-0.0000  plane waves:    5078
 k-point  10 :   0.1250 0.1250 0.0000  plane waves:    5074
 k-point  11 :  -0.1250 0.1250 0.0000  plane waves:    5074
 k-point  12 :   0.2500 0.1250 0.0000  plane waves:    5086
 k-point  13 :  -0.1250 0.2500 0.0000  plane waves:    5086
 k-point  14 :  -0.2500 0.1250 0.0000  plane waves:    5086
 k-point  15 :   0.1250 0.2500 0.0000  plane waves:    5086
 k-point  16 :   0.3750 0.1250 0.0000  plane waves:    5116
 k-point  17 :  -0.1250 0.3750-0.0000  plane waves:    5116
 k-point  18 :  -0.3750 0.1250 0.0000  plane waves:    5116
 k-point  19 :   0.1250 0.3750-0.0000  plane waves:    5116
 k-point  20 :   0.5000 0.1250 0.0000  plane waves:    5118
 k-point  21 :  -0.1250 0.5000-0.0000  plane waves:    5118
 k-point  22 :   0.2500 0.2500 0.0000  plane waves:    5110
 k-point  23 :  -0.2500 0.2500 0.0000  plane waves:    5110
 k-point  24 :   0.3750 0.2500 0.0000  plane waves:    5096
 k-point  25 :  -0.2500 0.3750-0.0000  plane waves:    5096
 k-point  26 :  -0.3750 0.2500 0.0000  plane waves:    5096
 k-point  27 :   0.2500 0.3750-0.0000  plane waves:    5096
 k-point  28 :   0.5000 0.2500 0.0000  plane waves:    5114
 k-point  29 :  -0.2500 0.5000-0.0000  plane waves:    5114
 k-point  30 :   0.3750 0.3750-0.0000  plane waves:    5108
 k-point  31 :  -0.3750 0.3750-0.0000  plane waves:    5108
 k-point  32 :   0.5000 0.3750-0.0000  plane waves:    5112
 k-point  33 :  -0.3750 0.5000-0.0000  plane waves:    5112
 k-point  34 :   0.5000 0.5000-0.0000  plane waves:    5108
 k-point  35 :   0.0000 0.0000 0.3333  plane waves:    5076
 k-point  36 :   0.1250-0.0000 0.3333  plane waves:    5077
 k-point  37 :  -0.0000 0.1250 0.3333  plane waves:    5077
 k-point  38 :  -0.1250-0.0000 0.3333  plane waves:    5077
 k-point  39 :  -0.0000-0.1250 0.3333  plane waves:    5077
 k-point  40 :   0.2500 0.0000 0.3333  plane waves:    5108
 k-point  41 :  -0.0000 0.2500 0.3333  plane waves:    5108
 k-point  42 :  -0.2500 0.0000 0.3333  plane waves:    5108
 k-point  43 :   0.0000-0.2500 0.3333  plane waves:    5108
 k-point  44 :   0.3750-0.0000 0.3333  plane waves:    5113
 k-point  45 :   0.0000 0.3750 0.3333  plane waves:    5113
 k-point  46 :  -0.3750 0.0000 0.3333  plane waves:    5113
 k-point  47 :   0.0000-0.3750 0.3333  plane waves:    5113
 k-point  48 :   0.5000 0.0000 0.3333  plane waves:    5106
 k-point  49 :  -0.0000 0.5000 0.3333  plane waves:    5106
 k-point  50 :   0.1250 0.1250 0.3333  plane waves:    5078
 k-point  51 :  -0.1250 0.1250 0.3333  plane waves:    5078
 k-point  52 :  -0.1250-0.1250 0.3333  plane waves:    5078
 k-point  53 :   0.1250-0.1250 0.3333  plane waves:    5078
 k-point  54 :   0.2500 0.1250 0.3333  plane waves:    5094
 k-point  55 :  -0.1250 0.2500 0.3333  plane waves:    5094
 k-point  56 :  -0.2500-0.1250 0.3333  plane waves:    5094
 k-point  57 :   0.1250-0.2500 0.3333  plane waves:    5094
 k-point  58 :  -0.2500 0.1250-0.3333  plane waves:    5094
 k-point  59 :   0.1250 0.2500-0.3333  plane waves:    5094
 k-point  60 :   0.2500-0.1250-0.3333  plane waves:    5094
 k-point  61 :  -0.1250-0.2500-0.3333  plane waves:    5094
 k-point  62 :   0.3750 0.1250 0.3333  plane waves:    5108
 k-point  63 :  -0.1250 0.3750 0.3333  plane waves:    5108
 k-point  64 :  -0.3750-0.1250 0.3333  plane waves:    5108
 k-point  65 :   0.1250-0.3750 0.3333  plane waves:    5108
 k-point  66 :  -0.3750 0.1250-0.3333  plane waves:    5108
 k-point  67 :   0.1250 0.3750-0.3333  plane waves:    5108
 k-point  68 :   0.3750-0.1250-0.3333  plane waves:    5108
 k-point  69 :  -0.1250-0.3750-0.3333  plane waves:    5108
 k-point  70 :   0.5000 0.1250 0.3333  plane waves:    5112
 k-point  71 :  -0.1250 0.5000 0.3333  plane waves:    5112
 k-point  72 :   0.5000-0.1250 0.3333  plane waves:    5112
 k-point  73 :   0.1250 0.5000 0.3333  plane waves:    5112
 k-point  74 :   0.2500 0.2500 0.3333  plane waves:    5099
 k-point  75 :  -0.2500 0.2500 0.3333  plane waves:    5099
 k-point  76 :  -0.2500-0.2500 0.3333  plane waves:    5099
 k-point  77 :   0.2500-0.2500 0.3333  plane waves:    5099
 k-point  78 :   0.3750 0.2500 0.3333  plane waves:    5095
 k-point  79 :  -0.2500 0.3750 0.3333  plane waves:    5095
 k-point  80 :  -0.3750-0.2500 0.3333  plane waves:    5095
 k-point  81 :   0.2500-0.3750 0.3333  plane waves:    5095
 k-point  82 :  -0.3750 0.2500-0.3333  plane waves:    5095
 k-point  83 :   0.2500 0.3750-0.3333  plane waves:    5095
 k-point  84 :   0.3750-0.2500-0.3333  plane waves:    5095
 k-point  85 :  -0.2500-0.3750-0.3333  plane waves:    5095
 k-point  86 :   0.5000 0.2500 0.3333  plane waves:    5090
 k-point  87 :  -0.2500 0.5000 0.3333  plane waves:    5090
 k-point  88 :   0.5000-0.2500 0.3333  plane waves:    5090
 k-point  89 :   0.2500 0.5000 0.3333  plane waves:    5090
 k-point  90 :   0.3750 0.3750 0.3333  plane waves:    5110
 k-point  91 :  -0.3750 0.3750 0.3333  plane waves:    5110
 k-point  92 :  -0.3750-0.3750 0.3333  plane waves:    5110
 k-point  93 :   0.3750-0.3750 0.3333  plane waves:    5110
 k-point  94 :   0.5000 0.3750 0.3333  plane waves:    5114
 k-point  95 :  -0.3750 0.5000 0.3333  plane waves:    5114
 k-point  96 :   0.5000-0.3750 0.3333  plane waves:    5114
 k-point  97 :   0.3750 0.5000 0.3333  plane waves:    5114
 k-point  98 :   0.5000 0.5000 0.3333  plane waves:    5136

 maximum and minimum number of plane-waves per node :      1303     1249

 maximum number of plane-waves:      5136
 maximum index in each direction: 
   IXMAX=    7   IYMAX=    7   IZMAX=   24
   IXMIN=   -7   IYMIN=   -7   IZMIN=  -24


 parallel 3D FFT for wavefunctions:
    minimum data exchange during FFTs selected (reduces bandwidth)
 parallel 3D FFT for charge:
    minimum data exchange during FFTs selected (reduces bandwidth)


 total amount of memory used by VASP MPI-rank0   107651. kBytes
=======================================================================

   base      :      30000. kBytes
   nonl-proj :      55074. kBytes
   fftplans  :       1092. kBytes
   grid      :       4533. kBytes
   one-center:         93. kBytes
   wavefun   :      16859. kBytes
 
     INWAV:  cpu time    0.0000: real time    0.0000
 Broyden mixing: mesh for mixing (old mesh)
   NGX = 15   NGY = 15   NGZ = 47
  (NGX  = 60   NGY  = 60   NGZ  =192)
  gives a total of  10575 points

 initial charge density was supplied:
 charge density of overlapping atoms calculated
 number of electron      84.0000000 magnetization       0.6000000
 keeping initial charge density in first step


--------------------------------------------------------------------------------------------------------


 Maximum index for augmentation-charges         1050 (set IRDMAX)


--------------------------------------------------------------------------------------------------------


 First call to EWALD:  gamma=   0.309
 Maximum number of real-space cells 4x 4x 2
 Maximum number of reciprocal cells 2x 2x 6

    FEWALD:  cpu time    0.0022: real time    0.0023


--------------------------------------- Iteration      1(   1)  ---------------------------------------


    POTLOK:  cpu time    0.0530: real time    0.0858
    SETDIJ:  cpu time    0.9071: real time    0.9078
     EDDAV:  cpu time    9.6989: real time    9.7134
       DOS:  cpu time    0.0038: real time    0.0038
    --------------------------------------------
      LOOP:  cpu time   10.6628: real time   10.7108

 eigenvalue-minimisations  : 25088
 total energy-change (2. order) : 0.5391022E+03  (-0.4084987E+04)
 number of electron      84.0000000 magnetization       0.6000000
 augmentation part       84.0000000 magnetization       0.6000000

 Free energy of the ion-electron system (eV)
  ---------------------------------------------------
  alpha Z        PSCENC =       487.77386565
  Ewald energy   TEWEN  =     -5604.22661122
  -Hartree energ DENC   =     -2140.13623014
  -exchange      EXHF   =         0.00000000
  -V(xc)+E(xc)   XCENC  =       389.56778095
  PAW double counting   =      6184.04713378    -6608.31218866
  entropy T*S    EENTRO =        -0.00278536
  eigenvalues    EBANDS =       -97.53976922
  atomic energy  EATOM  =      7927.93097991
  Solvation  Ediel_sol  =         0.00000000
  ---------------------------------------------------
  free energy    TOTEN  =       539.10217570 eV

  energy without entropy =      539.10496105  energy(sigma->0) =      539.10356837


--------------------------------------------------------------------------------------------------------




--------------------------------------- Iteration      1(   2)  ---------------------------------------


     EDDAV:  cpu time    9.8680: real time    9.8773
       DOS:  cpu time    0.0017: real time    0.0017
    --------------------------------------------
      LOOP:  cpu time    9.8697: real time    9.8790

 eigenvalue-minimisations  : 26064
 total energy-change (2. order) :-0.6575665E+03  (-0.6166095E+03)
 number of electron      84.0000000 magnetization       0.6000000
 augmentation part       84.0000000 magnetization       0.6000000

 Free energy of the ion-electron system (eV)
  ---------------------------------------------------
  alpha Z        PSCENC =       487.77386565
  Ewald energy   TEWEN  =     -5604.22661122
  -Hartree energ DENC   =     -2140.13623014
  -exchange      EXHF   =         0.00000000
  -V(xc)+E(xc)   XCENC  =       389.56778095
  PAW double counting   =      6184.04713378    -6608.31218866
  entropy T*S    EENTRO =        -0.00000000
  eigenvalues    EBANDS =      -755.10908541
  atomic energy  EATOM  =      7927.93097991
  Solvation  Ediel_sol  =         0.00000000
  ---------------------------------------------------
  free energy    TOTEN  =      -118.46435514 eV

  energy without entropy =     -118.46435514  energy(sigma->0) =     -118.46435514


--------------------------------------------------------------------------------------------------------




--------------------------------------- Iteration      1(   3)  ---------------------------------------


     EDDAV:  cpu time   13.0138: real time   13.0182
       DOS:  cpu time    0.0017: real time    0.0017
    --------------------------------------------
      LOOP:  cpu time   13.0156: real time   13.0199

 eigenvalue-minimisations  : 37088
 total energy-change (2. order) :-0.7740006E+02  (-0.7626009E+02)
 number of electron      84.0000000 magnetization       0.6000000
 augmentation part       84.0000000 magnetization       0.6000000

 Free energy of the ion-electron system (eV)
  ---------------------------------------------------
  alpha Z        PSCENC =       487.77386565
  Ewald energy   TEWEN  =     -5604.22661122
  -Hartree energ DENC   =     -2140.13623014
  -exchange      EXHF   =         0.00000000
  -V(xc)+E(xc)   XCENC  =       389.56778095
  PAW double counting   =      6184.04713378    -6608.31218866
  entropy T*S    EENTRO =        -0.00000000
  eigenvalues    EBANDS =      -832.50914813
  atomic energy  EATOM  =      7927.93097991
  Solvation  Ediel_sol  =         0.00000000
  ---------------------------------------------------
  free energy    TOTEN  =      -195.86441786 eV

  energy without entropy =     -195.86441786  energy(sigma->0) =     -195.86441786


--------------------------------------------------------------------------------------------------------




--------------------------------------- Iteration      1(   4)  ---------------------------------------


     EDDAV:  cpu time   13.9897: real time   14.0301
       DOS:  cpu time    0.0018: real time    0.0018
    --------------------------------------------
      LOOP:  cpu time   13.9915: real time   14.0319

 eigenvalue-minimisations  : 41120
 total energy-change (2. order) :-0.3940914E+01  (-0.3895397E+01)
 number of electron      84.0000000 magnetization       0.6000000
 augmentation part       84.0000000 magnetization       0.6000000

 Free energy of the ion-electron system (eV)
  ---------------------------------------------------
  alpha Z        PSCENC =       487.77386565
  Ewald energy   TEWEN  =     -5604.22661122
  -Hartree energ DENC   =     -2140.13623014
  -exchange      EXHF   =         0.00000000
  -V(xc)+E(xc)   XCENC  =       389.56778095
  PAW double counting   =      6184.04713378    -6608.31218866
  entropy T*S    EENTRO =        -0.00000000
  eigenvalues    EBANDS =      -836.45006229
  atomic energy  EATOM  =      7927.93097991
  Solvation  Ediel_sol  =         0.00000000
  ---------------------------------------------------
  free energy    TOTEN  =      -199.80533202 eV

  energy without entropy =     -199.80533202  energy(sigma->0) =     -199.80533202


--------------------------------------------------------------------------------------------------------




--------------------------------------- Iteration      1(   5)  ---------------------------------------


     EDDAV:  cpu time   11.8241: real time   11.8260
       DOS:  cpu time    0.0024: real time    0.0024
    CHARGE:  cpu time    1.0097: real time    1.0098
    MIXING:  cpu time    0.0024: real time    0.0033
    --------------------------------------------
      LOOP:  cpu time   12.8387: real time   12.8415

 eigenvalue-minimisations  : 33648
 total energy-change (2. order) :-0.6693992E-01  (-0.6692889E-01)
 number of electron      83.9999984 magnetization       0.4129216
 augmentation part       17.7273217 magnetization       0.4398519

 Broyden mixing:
  rms(total) = 0.35329E+01    rms(broyden)= 0.35327E+01
  rms(prec ) = 0.38968E+01
  weight for this iteration     100.00

 Free energy of the ion-electron system (eV)
  ---------------------------------------------------
  alpha Z        PSCENC =       487.77386565
  Ewald energy   TEWEN  =     -5604.22661122
  -Hartree energ DENC   =     -2140.13623014
  -exchange      EXHF   =         0.00000000
  -V(xc)+E(xc)   XCENC  =       389.56778095
  PAW double counting   =      6184.04713378    -6608.31218866
  entropy T*S    EENTRO =        -0.00000000
  eigenvalues    EBANDS =      -836.51700221
  atomic energy  EATOM  =      7927.93097991
  Solvation  Ediel_sol  =         0.00000000
  ---------------------------------------------------
  free energy    TOTEN  =      -199.87227194 eV

  energy without entropy =     -199.87227194  energy(sigma->0) =     -199.87227194


--------------------------------------------------------------------------------------------------------




--------------------------------------- Iteration      1(   6)  ---------------------------------------


    POTLOK:  cpu time    0.0441: real time    0.0538
    SETDIJ:  cpu time    0.8907: real time    0.8968
     EDDAV:  cpu time   14.2316: real time   14.2399
       DOS:  cpu time    0.0022: real time    0.0022
    CHARGE:  cpu time    1.0061: real time    1.0073
    MIXING:  cpu time    0.0010: real time    0.0013
    --------------------------------------------
      LOOP:  cpu time   16.1758: real time   16.2011

 eigenvalue-minimisations  : 42288
 total energy-change (2. order) : 0.4063619E+02  (-0.4458066E+01)
 number of electron      83.9999984 magnetization       0.2889062
 augmentation part       19.0303456 magnetization       0.2792621

 Broyden mixing:
  rms(total) = 0.29086E+01    rms(broyden)= 0.29086E+01
  rms(prec ) = 0.29254E+01
  weight for this iteration     100.00

 eigenvalues of (default mixing * dielectric matrix)
  average eigenvalue GAMMA=   0.9373
  0.9373

 Free energy of the ion-electron system (eV)
  ---------------------------------------------------
  alpha Z        PSCENC =       487.77386565
  Ewald energy   TEWEN  =     -5604.22661122
  -Hartree energ DENC   =     -2154.93616168
  -exchange      EXHF   =         0.00000000
  -V(xc)+E(xc)   XCENC  =       408.55232289
  PAW double counting   =      7785.77367363    -8202.38544607
  entropy T*S    EENTRO =        -0.00000000
  eigenvalues    EBANDS =      -807.71870047
  atomic energy  EATOM  =      7927.93097991
  Solvation  Ediel_sol  =         0.00000000
  ---------------------------------------------------
  free energy    TOTEN  =      -159.23607737 eV

  energy without entropy =     -159.23607737  energy(sigma->0) =     -159.23607737


--------------------------------------------------------------------------------------------------------




--------------------------------------- Iteration      1(   7)  ---------------------------------------


    POTLOK:  cpu time    0.0366: real time    0.0887
    SETDIJ:  cpu time    0.8915: real time    0.8976
     EDDAV:  cpu time   11.8573: real time   11.8647
       DOS:  cpu time    0.0016: real time    0.0016
    CHARGE:  cpu time    1.0077: real time    1.0091
    MIXING:  cpu time    0.0006: real time    0.0006
    --------------------------------------------
      LOOP:  cpu time   13.7953: real time   13.8622

 eigenvalue-minimisations  : 33280
 total energy-change (2. order) :-0.1583284E+01  (-0.1590973E+01)
 number of electron      83.9999984 magnetization       0.1202320
 augmentation part       18.6717825 magnetization       0.1077292

 Broyden mixing:
  rms(total) = 0.19923E+01    rms(broyden)= 0.19923E+01
  rms(prec ) = 0.20127E+01
  weight for this iteration     100.00

 eigenvalues of (default mixing * dielectric matrix)
  average eigenvalue GAMMA=   1.4798
  1.1306  1.8290

 Free energy of the ion-electron system (eV)
  ---------------------------------------------------
  alpha Z        PSCENC =       487.77386565
  Ewald energy   TEWEN  =     -5604.22661122
  -Hartree energ DENC   =     -2166.48926306
  -exchange      EXHF   =         0.00000000
  -V(xc)+E(xc)   XCENC  =       407.27274353
  PAW double counting   =      8949.86463090    -9386.36444797
  entropy T*S    EENTRO =        -0.00000000
  eigenvalues    EBANDS =      -776.58125864
  atomic energy  EATOM  =      7927.93097991
  Solvation  Ediel_sol  =         0.00000000
  ---------------------------------------------------
  free energy    TOTEN  =      -160.81936090 eV

  energy without entropy =     -160.81936090  energy(sigma->0) =     -160.81936090


--------------------------------------------------------------------------------------------------------




--------------------------------------- Iteration      1(   8)  ---------------------------------------


    POTLOK:  cpu time    0.0410: real time    0.0452
    SETDIJ:  cpu time    0.8975: real time    0.8977
     EDDAV:  cpu time   11.8292: real time   11.8317
       DOS:  cpu time    0.0016: real time    0.0016
    CHARGE:  cpu time    1.0072: real time    1.0074
    MIXING:  cpu time    0.0006: real time    0.0006
    --------------------------------------------
      LOOP:  cpu time   13.7771: real time   13.7841

 eigenvalue-minimisations  : 33520
 total energy-change (2. order) :-0.2698762E+00  (-0.4437632E+00)
 number of electron      83.9999984 magnetization       0.0659307
 augmentation part       18.9727889 magnetization       0.0609128

 Broyden mixing:
  rms(total) = 0.45264E+00    rms(broyden)= 0.45260E+00
  rms(prec ) = 0.53932E+00
  weight for this iteration     100.00

 eigenvalues of (default mixing * dielectric matrix)
  average eigenvalue GAMMA=   1.3083
  2.2069  0.8591  0.8591

 Free energy of the ion-electron system (eV)
  ---------------------------------------------------
  alpha Z        PSCENC =       487.77386565
  Ewald energy   TEWEN  =     -5604.22661122
  -Hartree energ DENC   =     -2134.85142594
  -exchange      EXHF   =         0.00000000
  -V(xc)+E(xc)   XCENC  =       404.93996870
  PAW double counting   =     10654.80268394   -11098.04029221
  entropy T*S    EENTRO =        -0.00000000
  eigenvalues    EBANDS =      -799.41840597
  atomic energy  EATOM  =      7927.93097991
  Solvation  Ediel_sol  =         0.00000000
  ---------------------------------------------------
  free energy    TOTEN  =      -161.08923713 eV

  energy without entropy =     -161.08923713  energy(sigma->0) =     -161.08923713


--------------------------------------------------------------------------------------------------------




--------------------------------------- Iteration      1(   9)  ---------------------------------------


    POTLOK:  cpu time    0.0482: real time    0.0483
    SETDIJ:  cpu time    0.8953: real time    0.8954
     EDDAV:  cpu time   11.7683: real time   11.7708
       DOS:  cpu time    0.0017: real time    0.0017
    CHARGE:  cpu time    1.0045: real time    1.0047
    MIXING:  cpu time    0.0007: real time    0.0007
    --------------------------------------------
      LOOP:  cpu time   13.7187: real time   13.7216

 eigenvalue-minimisations  : 33328
 total energy-change (2. order) : 0.3573658E+00  (-0.1319468E+00)
 number of electron      83.9999984 magnetization       0.0470653
 augmentation part       18.8101335 magnetization       0.0397976

 Broyden mixing:
  rms(total) = 0.15032E+00    rms(broyden)= 0.15031E+00
  rms(prec ) = 0.15988E+00
  weight for this iteration     100.00

 eigenvalues of (default mixing * dielectric matrix)
  average eigenvalue GAMMA=   1.1439
  2.3002  0.8662  0.8662  0.5432

 Free energy of the ion-electron system (eV)
  ---------------------------------------------------
  alpha Z        PSCENC =       487.77386565
  Ewald energy   TEWEN  =     -5604.22661122
  -Hartree energ DENC   =     -2147.94777829
  -exchange      EXHF   =         0.00000000
  -V(xc)+E(xc)   XCENC  =       406.45578877
  PAW double counting   =     10909.08479458   -11358.39173463
  entropy T*S    EENTRO =        -0.00000000
  eigenvalues    EBANDS =      -781.41117606
  atomic energy  EATOM  =      7927.93097991
  Solvation  Ediel_sol  =         0.00000000
  ---------------------------------------------------
  free energy    TOTEN  =      -160.73187129 eV

  energy without entropy =     -160.73187129  energy(sigma->0) =     -160.73187129


--------------------------------------------------------------------------------------------------------




--------------------------------------- Iteration      1(  10)  ---------------------------------------


    POTLOK:  cpu time    0.0387: real time    0.0787
    SETDIJ:  cpu time    0.9477: real time    0.9478
     EDDAV:  cpu time   11.8621: real time   11.8646
       DOS:  cpu time    0.0018: real time    0.0018
    CHARGE:  cpu time    0.9891: real time    0.9893
    MIXING:  cpu time    0.0005: real time    0.0005
    --------------------------------------------
      LOOP:  cpu time   13.8399: real time   13.8827

 eigenvalue-minimisations  : 31232
 total energy-change (2. order) : 0.4872302E-02  (-0.1258831E-01)
 number of electron      83.9999984 magnetization       0.0299361
 augmentation part       18.8098979 magnetization       0.0239767

 Broyden mixing:
  rms(total) = 0.94566E-01    rms(broyden)= 0.94560E-01
  rms(prec ) = 0.96821E-01
  weight for this iteration     100.00

 eigenvalues of (default mixing * dielectric matrix)
  average eigenvalue GAMMA=   1.1259
  2.4496  0.9828  0.8436  0.8436  0.5099

 Free energy of the ion-electron system (eV)
  ---------------------------------------------------
  alpha Z        PSCENC =       487.77386565
  Ewald energy   TEWEN  =     -5604.22661122
  -Hartree energ DENC   =     -2148.33599364
  -exchange      EXHF   =         0.00000000
  -V(xc)+E(xc)   XCENC  =       406.15687820
  PAW double counting   =     10956.19096051   -11405.96190958
  entropy T*S    EENTRO =        -0.00000000
  eigenvalues    EBANDS =      -780.25516882
  atomic energy  EATOM  =      7927.93097991
  Solvation  Ediel_sol  =         0.00000000
  ---------------------------------------------------
  free energy    TOTEN  =      -160.72699899 eV

  energy without entropy =     -160.72699899  energy(sigma->0) =     -160.72699899


--------------------------------------------------------------------------------------------------------




--------------------------------------- Iteration      1(  11)  ---------------------------------------


    POTLOK:  cpu time    0.0388: real time    0.0447
    SETDIJ:  cpu time    0.8963: real time    0.8965
     EDDAV:  cpu time   11.3051: real time   11.3075
       DOS:  cpu time    0.0018: real time    0.0018
    CHARGE:  cpu time    0.9831: real time    0.9833
    MIXING:  cpu time    0.0006: real time    0.0006
    --------------------------------------------
      LOOP:  cpu time   13.2259: real time   13.2345

 eigenvalue-minimisations  : 34320
 total energy-change (2. order) :-0.2164445E-02  (-0.8125956E-03)
 number of electron      83.9999984 magnetization       0.0120169
 augmentation part       18.8150433 magnetization       0.0083483

 Broyden mixing:
  rms(total) = 0.50446E-01    rms(broyden)= 0.50445E-01
  rms(prec ) = 0.51690E-01
  weight for this iteration     100.00

 eigenvalues of (default mixing * dielectric matrix)
  average eigenvalue GAMMA=   1.2094
  2.5972  1.5931  0.9130  0.9130  0.7676  0.4724

 Free energy of the ion-electron system (eV)
  ---------------------------------------------------
  alpha Z        PSCENC =       487.77386565
  Ewald energy   TEWEN  =     -5604.22661122
  -Hartree energ DENC   =     -2147.84038166
  -exchange      EXHF   =         0.00000000
  -V(xc)+E(xc)   XCENC  =       406.10735717
  PAW double counting   =     10982.51829497   -11432.58792130
  entropy T*S    EENTRO =        -0.00000000
  eigenvalues    EBANDS =      -780.40474695
  atomic energy  EATOM  =      7927.93097991
  Solvation  Ediel_sol  =         0.00000000
  ---------------------------------------------------
  free energy    TOTEN  =      -160.72916343 eV

  energy without entropy =     -160.72916343  energy(sigma->0) =     -160.72916343


--------------------------------------------------------------------------------------------------------




--------------------------------------- Iteration      1(  12)  ---------------------------------------


    POTLOK:  cpu time    0.0377: real time    0.0426
    SETDIJ:  cpu time    0.8960: real time    0.8962
     EDDAV:  cpu time   10.6621: real time   10.6644
       DOS:  cpu time    0.0017: real time    0.0017
    CHARGE:  cpu time    0.9779: real time    0.9781
    MIXING:  cpu time    0.0006: real time    0.0006
    --------------------------------------------
      LOOP:  cpu time   12.5760: real time   12.5835

 eigenvalue-minimisations  : 31472
 total energy-change (2. order) :-0.1490160E-02  (-0.3459195E-03)
 number of electron      83.9999984 magnetization       0.0049012
 augmentation part       18.8189303 magnetization       0.0036660

 Broyden mixing:
  rms(total) = 0.22639E-01    rms(broyden)= 0.22639E-01
  rms(prec ) = 0.23625E-01
  weight for this iteration     100.00

 eigenvalues of (default mixing * dielectric matrix)
  average eigenvalue GAMMA=   1.2442
  2.7062  2.1136  0.8887  0.8887  0.9182  0.7326  0.4612

 Free energy of the ion-electron system (eV)
  ---------------------------------------------------
  alpha Z        PSCENC =       487.77386565
  Ewald energy   TEWEN  =     -5604.22661122
  -Hartree energ DENC   =     -2147.64056249
  -exchange      EXHF   =         0.00000000
  -V(xc)+E(xc)   XCENC  =       406.14021340
  PAW double counting   =     10962.36113043   -11412.65717257
  entropy T*S    EENTRO =        -0.00000000
  eigenvalues    EBANDS =      -780.41249671
  atomic energy  EATOM  =      7927.93097991
  Solvation  Ediel_sol  =         0.00000000
  ---------------------------------------------------
  free energy    TOTEN  =      -160.73065359 eV

  energy without entropy =     -160.73065359  energy(sigma->0) =     -160.73065359


--------------------------------------------------------------------------------------------------------




--------------------------------------- Iteration      1(  13)  ---------------------------------------


    POTLOK:  cpu time    0.0460: real time    0.0771
    SETDIJ:  cpu time    0.8925: real time    0.8926
     EDDAV:  cpu time   10.4011: real time   10.4029
       DOS:  cpu time    0.0018: real time    0.0018
    CHARGE:  cpu time    0.9841: real time    0.9843
    MIXING:  cpu time    0.0006: real time    0.0006
    --------------------------------------------
      LOOP:  cpu time   12.3262: real time   12.3593

 eigenvalue-minimisations  : 30448
 total energy-change (2. order) :-0.3042619E-03  (-0.1128717E-03)
 number of electron      83.9999984 magnetization       0.0028287
 augmentation part       18.8160145 magnetization       0.0023390

 Broyden mixing:
  rms(total) = 0.74569E-02    rms(broyden)= 0.74566E-02
  rms(prec ) = 0.75808E-02
  weight for this iteration     100.00

 eigenvalues of (default mixing * dielectric matrix)
  average eigenvalue GAMMA=   1.2459
  2.6562  2.4381  1.2298  0.8789  0.8789  0.7902  0.6348  0.4606

 Free energy of the ion-electron system (eV)
  ---------------------------------------------------
  alpha Z        PSCENC =       487.77386565
  Ewald energy   TEWEN  =     -5604.22661122
  -Hartree energ DENC   =     -2148.08495404
  -exchange      EXHF   =         0.00000000
  -V(xc)+E(xc)   XCENC  =       406.19868219
  PAW double counting   =     10929.89711725   -11380.18566811
  entropy T*S    EENTRO =        -0.00000000
  eigenvalues    EBANDS =      -780.03436949
  atomic energy  EATOM  =      7927.93097991
  Solvation  Ediel_sol  =         0.00000000
  ---------------------------------------------------
  free energy    TOTEN  =      -160.73095785 eV

  energy without entropy =     -160.73095785  energy(sigma->0) =     -160.73095785


--------------------------------------------------------------------------------------------------------




--------------------------------------- Iteration      1(  14)  ---------------------------------------


    POTLOK:  cpu time    0.0353: real time    0.0354
    SETDIJ:  cpu time    0.8964: real time    0.8965
     EDDAV:  cpu time   10.6586: real time   10.6607
       DOS:  cpu time    0.0017: real time    0.0017
    CHARGE:  cpu time    0.9885: real time    0.9887
    MIXING:  cpu time    0.0006: real time    0.0006
    --------------------------------------------
      LOOP:  cpu time   12.5810: real time   12.5836

 eigenvalue-minimisations  : 30976
[...]
     53       8.6296      0.00000
     54       8.6550      0.00000
     55       9.9680      0.00000
     56       9.9790      0.00000
     57      10.5372      0.00000
     58      10.5413      0.00000
     59      10.7351      0.00000
     60      10.7362      0.00000
     61      10.9351      0.00000
     62      10.9423      0.00000
     63      11.4380      0.00000
     64      11.4454      0.00000

 k-point    98 :       0.5000    0.5000    0.3333
  band No.  band energies     occupation 
      1     -33.0143      1.00000
      2     -32.9979      1.00000
      3     -32.9855      1.00000
      4     -32.9743      1.00000
      5     -14.7187      1.00000
      6     -14.7187      1.00000
      7     -14.7080      1.00000
      8     -14.6972      1.00000
      9     -14.6929      1.00000
     10     -14.6929      1.00000
     11     -14.6127      1.00000
     12     -14.6032      1.00000
     13     -14.3689      1.00000
     14     -14.3689      1.00000
     15     -14.3426      1.00000
     16     -14.3426      1.00000
     17     -11.3727      1.00000
     18     -11.3690      1.00000
     19     -10.6951      1.00000
     20     -10.6853      1.00000
     21      -4.7722      1.00000
     22      -4.7722      1.00000
     23      -4.7579      1.00000
     24      -4.7579      1.00000
     25      -4.6761      1.00000
     26      -4.6544      1.00000
     27      -4.5400      1.00000
     28      -4.5391      1.00000
     29      -4.5239      1.00000
     30      -4.5177      1.00000
     31      -0.5235      1.00000
     32      -0.5039      1.00000
     33       0.4798      1.00000
     34       0.4798      1.00000
     35       0.5600      1.00000
     36       0.5601      1.00000
     37       0.5871      1.00000
     38       0.5993      1.00000
     39       1.7339      1.00000
     40       1.7339      1.00000
     41       1.8145      1.00000
     42       1.8145      1.00000
     43       3.8388      0.00000
     44       3.8388      0.00000
     45       4.5821      0.00000
     46       4.5821      0.00000
     47       6.1711      0.00000
     48       6.1925      0.00000
     49       6.8358      0.00000
     50       6.8358      0.00000
     51       8.0741      0.00000
     52       8.0741      0.00000
     53       8.1652      0.00000
     54       8.2077      0.00000
     55       9.8963      0.00000
     56       9.9080      0.00000
     57      10.5234      0.00000
     58      10.5393      0.00000
     59      10.9372      0.00000
     60      10.9372      0.00000
     61      11.4776      0.00000
     62      11.4908      0.00000
     63      11.5415      0.00000
     64      11.5596      0.00000


--------------------------------------------------------------------------------------------------------


 soft charge-density along one line, spin component           1
         0         1         2         3         4         5         6         7         8         9
 total charge-density along one line
 
 soft charge-density along one line, spin component           2
         0         1         2         3         4         5         6         7         8         9
 total charge-density along one line
 
 pseudopotential strength for first ion, spin component:           1
-10.648  -4.000  -0.000   0.003   0.000  -0.000   0.003   0.000
 -4.000  -1.067   0.000  -0.012  -0.000   0.000  -0.012  -0.000
 -0.000   0.000 -15.464  -0.000  -0.000 -15.171  -0.000  -0.000
  0.003  -0.012  -0.000 -15.490   0.000  -0.000 -15.197   0.000
  0.000  -0.000  -0.000   0.000 -15.464  -0.000   0.000 -15.171
 -0.000   0.000 -15.171  -0.000  -0.000 -14.883  -0.000  -0.000
  0.003  -0.012  -0.000 -15.197   0.000  -0.000 -14.908   0.000
  0.000  -0.000  -0.000   0.000 -15.171  -0.000   0.000 -14.883
 -0.000  -0.000  -0.000  -0.000  -0.000  -0.000  -0.000  -0.000
 -0.000   0.000   0.002  -0.000  -0.000   0.002   0.000  -0.000
 -0.007  -0.004   0.000  -0.007  -0.000   0.000  -0.007  -0.000
  0.000   0.000  -0.000  -0.000   0.002  -0.000  -0.000   0.002
 -0.000   0.000  -0.000  -0.000   0.000  -0.000  -0.000   0.000
 -0.000  -0.000  -0.000  -0.000  -0.000  -0.000  -0.000  -0.000
 -0.000   0.000   0.003  -0.000  -0.000   0.003  -0.000  -0.000
 -0.011  -0.007   0.000  -0.012  -0.000   0.000  -0.011  -0.000
  0.000   0.000  -0.000  -0.000   0.003  -0.000  -0.000   0.003
 -0.000   0.000  -0.000  -0.000  -0.000  -0.000  -0.000  -0.000
 pseudopotential strength for first ion, spin component:           2
-10.648  -4.000   0.000   0.003   0.000   0.000   0.003   0.000
 -4.000  -1.067  -0.000  -0.012  -0.000  -0.000  -0.012  -0.000
  0.000  -0.000 -15.464   0.000   0.000 -15.171   0.000   0.000
  0.003  -0.012   0.000 -15.490   0.000   0.000 -15.197   0.000
  0.000  -0.000   0.000   0.000 -15.464   0.000   0.000 -15.171
  0.000  -0.000 -15.171   0.000   0.000 -14.883   0.000   0.000
  0.003  -0.012   0.000 -15.197   0.000   0.000 -14.908   0.000
  0.000  -0.000   0.000   0.000 -15.171   0.000   0.000 -14.883
  0.000   0.000  -0.000   0.000   0.000  -0.000   0.000   0.000
  0.000  -0.000   0.002  -0.000   0.000   0.002  -0.000   0.000
 -0.007  -0.004  -0.000  -0.007  -0.000  -0.000  -0.007  -0.000
  0.000   0.000   0.000  -0.000   0.002   0.000  -0.000   0.002
 -0.000  -0.000   0.000  -0.000   0.000   0.000  -0.000   0.000
  0.000   0.000  -0.000   0.000   0.000  -0.000   0.000   0.000
  0.000  -0.000   0.003   0.000   0.000   0.003  -0.000   0.000
 -0.011  -0.007  -0.000  -0.012  -0.000  -0.000  -0.011  -0.000
  0.000   0.000   0.000  -0.000   0.003   0.000  -0.000   0.003
 -0.000  -0.000  -0.000  -0.000  -0.000   0.000  -0.000  -0.000
 total augmentation occupancy for first ion, spin component:           1
  2.005   0.015  -0.000  -0.167  -0.000   0.000   0.170   0.000   0.000  -0.000   0.001   0.000  -0.000  -0.000   0.000   0.006
  0.015   0.562   0.000   0.366   0.000  -0.000  -0.324   0.000   0.000  -0.000  -0.075   0.001  -0.000  -0.000   0.000   0.032
 -0.000   0.000  11.025  -0.000  -0.000  -9.614   0.000   0.000   0.000  -0.607  -0.000   0.000   0.000   0.000   0.337   0.000
 -0.167   0.366  -0.000   7.042   0.002   0.000  -6.125  -0.002   0.000   0.000   4.031   0.005  -0.000  -0.000  -0.000  -2.172
 -0.000   0.000  -0.000   0.002  11.025   0.000  -0.002  -9.614   0.000   0.000   0.002  -0.607   0.001  -0.000  -0.000  -0.001
  0.000  -0.000  -9.614   0.000   0.000  10.253  -0.000  -0.000   0.000   0.545   0.000  -0.000  -0.000  -0.000  -0.299  -0.000
  0.170  -0.324   0.000  -6.125  -0.002  -0.000   7.256   0.002  -0.000  -0.000  -3.774  -0.005   0.000   0.000   0.000   2.048
  0.000   0.000   0.000  -0.002  -9.614  -0.000   0.002  10.253  -0.000  -0.000  -0.002   0.545  -0.001   0.000   0.000   0.001
  0.000   0.000   0.000   0.000   0.000   0.000  -0.000  -0.000   6.632   0.000   0.000  -0.000  -0.000  -3.555  -0.000  -0.000
 -0.000  -0.000  -0.607   0.000   0.000   0.545  -0.000  -0.000   0.000   1.981  -0.000  -0.000   0.000  -0.000  -1.056   0.000
  0.001  -0.075  -0.000   4.031   0.002   0.000  -3.774  -0.002   0.000  -0.000   5.408   0.005  -0.000  -0.000   0.000  -2.933
  0.000   0.001   0.000   0.005  -0.607  -0.000  -0.005   0.545  -0.000  -0.000   0.005   1.981   0.001   0.000   0.000  -0.003
 -0.000  -0.000   0.000  -0.000   0.001  -0.000   0.000  -0.001  -0.000   0.000  -0.000   0.001   1.870   0.000  -0.000   0.000
 -0.000  -0.000   0.000  -0.000  -0.000  -0.000   0.000   0.000  -3.555  -0.000  -0.000   0.000   0.000   1.910   0.000   0.000
  0.000   0.000   0.337  -0.000  -0.000  -0.299   0.000   0.000  -0.000  -1.056   0.000   0.000  -0.000   0.000   0.563  -0.000
  0.006   0.032   0.000  -2.172  -0.001  -0.000   2.048   0.001  -0.000   0.000  -2.933  -0.003   0.000   0.000  -0.000   1.594
 -0.000  -0.000  -0.000  -0.003   0.337   0.000   0.003  -0.299   0.000   0.000  -0.003  -1.056  -0.000  -0.000  -0.000   0.001
  0.000   0.000  -0.000   0.000  -0.000   0.000  -0.000   0.000   0.000  -0.000   0.000  -0.000  -0.983  -0.000   0.000  -0.000
 total augmentation occupancy for first ion, spin component:           2
  0.000   0.000  -0.000  -0.000  -0.000   0.000   0.000   0.000  -0.000   0.000   0.000   0.000   0.000   0.000  -0.000  -0.000
  0.000   0.000   0.000  -0.000   0.000  -0.000   0.000  -0.000  -0.000   0.000   0.000  -0.000  -0.000   0.000  -0.000  -0.000
 -0.000   0.000  -0.000   0.000   0.000   0.000  -0.000  -0.000  -0.000  -0.000   0.000  -0.000  -0.000   0.000   0.000  -0.000
 -0.000  -0.000   0.000   0.000   0.000  -0.000  -0.000  -0.000  -0.000   0.000   0.000   0.000   0.000   0.000  -0.000   0.000
 -0.000   0.000   0.000   0.000  -0.000  -0.000  -0.000   0.000  -0.000  -0.000  -0.000  -0.000   0.000   0.000   0.000   0.000
  0.000  -0.000   0.000  -0.000  -0.000  -0.000   0.000   0.000   0.000   0.000  -0.000   0.000   0.000  -0.000  -0.000   0.000
  0.000   0.000  -0.000  -0.000  -0.000   0.000   0.000  -0.000   0.000  -0.000  -0.000   0.000  -0.000  -0.000   0.000  -0.000
  0.000  -0.000  -0.000  -0.000   0.000   0.000  -0.000  -0.000   0.000   0.000   0.000   0.000  -0.000  -0.000  -0.000  -0.000
 -0.000  -0.000  -0.000  -0.000  -0.000   0.000   0.000   0.000  -0.000  -0.000   0.000  -0.000   0.000   0.000   0.000  -0.000
  0.000   0.000  -0.000   0.000  -0.000   0.000  -0.000   0.000  -0.000   0.000   0.000   0.000  -0.000   0.000  -0.000  -0.000
  0.000   0.000   0.000   0.000  -0.000  -0.000  -0.000   0.000   0.000   0.000  -0.000  -0.000   0.000   0.000  -0.000   0.000
  0.000  -0.000  -0.000   0.000  -0.000   0.000   0.000   0.000  -0.000   0.000  -0.000   0.000  -0.000   0.000  -0.000   0.000
  0.000  -0.000  -0.000   0.000   0.000   0.000  -0.000  -0.000   0.000  -0.000   0.000  -0.000   0.000  -0.000   0.000  -0.000
  0.000   0.000   0.000   0.000   0.000  -0.000  -0.000  -0.000   0.000   0.000   0.000   0.000  -0.000  -0.000  -0.000  -0.000
 -0.000  -0.000   0.000  -0.000   0.000  -0.000   0.000  -0.000   0.000  -0.000  -0.000  -0.000   0.000  -0.000   0.000   0.000
 -0.000  -0.000  -0.000   0.000   0.000   0.000  -0.000  -0.000  -0.000  -0.000   0.000   0.000  -0.000  -0.000   0.000  -0.000
 -0.000   0.000   0.000  -0.000   0.000  -0.000  -0.000  -0.000   0.000  -0.000   0.000  -0.000   0.000  -0.000   0.000  -0.000
 -0.000   0.000   0.000  -0.000  -0.000  -0.000   0.000   0.000  -0.000   0.000  -0.000   0.000  -0.000   0.000  -0.000   0.000


------------------------ aborting loop because EDIFF is reached ----------------------------------------


 


 total charge     
 
# of ion       s       p       d       tot
------------------------------------------
    1        2.017   5.843   0.232   8.092
    2        2.017   5.843   0.233   8.094
    3        2.017   5.843   0.233   8.094
    4        2.017   5.843   0.233   8.093
    5        0.700   0.652   9.754  11.105
    6        0.698   0.646   9.753  11.096
    7        1.258   2.392   0.000   3.650
    8        1.258   2.390   0.000   3.648
    9        1.259   2.389   0.000   3.648
   10        1.258   2.390   0.000   3.648
--------------------------------------------------
tot         14.499  34.231  20.439  69.169
 


 magnetization (x)
 
# of ion       s       p       d       tot
------------------------------------------
    1        0.000   0.000   0.000   0.000
    2        0.000   0.000   0.000   0.000
    3        0.000   0.000   0.000   0.000
    4        0.000   0.000   0.000   0.000
    5        0.000   0.000  -0.000   0.000
    6        0.000   0.000  -0.000   0.000
    7       -0.000  -0.000   0.000  -0.000
    8       -0.000  -0.000   0.000  -0.000
    9       -0.000  -0.000   0.000  -0.000
   10       -0.000  -0.000   0.000  -0.000
--------------------------------------------------
tot          0.000  -0.000   0.000  -0.000
 
    CHARGE:  cpu time    0.1215: real time    0.1216
    FORLOC:  cpu time    0.0007: real time    0.0007
    FORNL :  cpu time    0.6207: real time    0.6209
    STRESS:  cpu time   18.8321: real time   18.8353
    FORCOR:  cpu time    0.0457: real time    0.0458
    FORHAR:  cpu time    0.0024: real time    0.0026
    MIXING:  cpu time    0.0007: real time    0.0007
    OFIELD:  cpu time    0.0002: real time    0.0003

  FORCE on cell =-STRESS in cart. coord.  units (eV):
  Direction    XX          YY          ZZ          XY          YZ          ZX
  --------------------------------------------------------------------------------------
  Alpha Z   487.77387   487.77387   487.77387
  Ewald   -2222.81132 -2222.81052 -1158.61004    -0.00001    -0.00000    -0.49475
  Hartree   510.60142   510.60186  1126.91974    -0.00000    -0.00000    -0.31475
  E(xc)    -403.64050  -403.64048  -404.26874     0.00000    -0.00000    -0.00042
  Local     716.95908   716.95799  -915.88229     0.00001     0.00001     0.79851
  n-local  -301.54461  -301.54455  -289.45156    -0.00000     0.00000    -0.00280
  augment   115.41859   115.41861   111.01237     0.00000    -0.00000     0.00183
  Kinetic  1097.13795  1097.13766  1042.58512    -0.00000     0.00000     0.00874
  Fock        0.00000     0.00000     0.00000     0.00000     0.00000     0.00000
  -------------------------------------------------------------------------------------
  Total      -0.10552    -0.10556     0.07847    -0.00000    -0.00000    -0.00363
  in kB      -0.89260    -0.89289     0.66373    -0.00000    -0.00000    -0.03074
  external pressure =       -0.37 kB  Pullay stress =        0.00 kB


 VOLUME and BASIS-vectors are now :
 -----------------------------------------------------------------------------
  energy-cutoff  :      520.00
  volume of cell :      189.41
      direct lattice vectors                 reciprocal lattice vectors
     3.851102821  0.000000006 -0.000000101     0.259665879 -0.000000000  0.000000007
     0.000000007  3.851102715 -0.000000006    -0.000000000  0.259665886  0.000000000
    -0.000000333 -0.000000021 12.771321364     0.000000002  0.000000000  0.078300434

  length of vectors
     3.851102821  3.851102715 12.771321364     0.259665879  0.259665886  0.078300434


 FORCES acting on ions
    electron-ion (+dipol)            ewald-force                    non-local-force                 convergence-correction
 -----------------------------------------------------------------------------------------------
   -.623E-01 -.243E-04 0.322E+01   0.584E-01 0.232E-04 -.557E+01   0.316E-02 0.163E-05 0.234E+01   0.484E-06 -.108E-06 -.534E-04
   0.365E-03 -.358E-05 -.185E+01   0.139E-03 0.365E-05 0.427E+01   -.413E-03 -.776E-07 -.241E+01   -.556E-06 0.172E-06 -.412E-04
   0.430E-02 -.356E-05 0.279E+01   -.499E-02 0.346E-05 -.515E+01   0.676E-03 0.351E-06 0.238E+01   0.297E-06 -.160E-06 0.330E-04
   0.316E+00 -.317E-04 -.393E+01   -.295E+00 0.308E-04 0.623E+01   -.249E-01 0.139E-05 -.233E+01   -.315E-05 0.145E-06 0.429E-04
   -.309E+00 0.105E-04 0.231E+01   0.300E+00 -.107E-04 -.252E+01   0.507E-02 0.724E-06 0.564E-01   -.230E-05 -.400E-06 0.117E-03
   0.147E-02 0.763E-05 0.599E+00   -.181E-02 -.802E-05 -.532E+00   0.300E-03 0.107E-06 -.536E-01   -.102E-06 0.437E-06 -.798E-04
   0.260E-01 0.216E-04 -.133E+03   -.482E-01 -.217E-04 0.144E+03   0.282E-01 0.427E-07 -.104E+02   -.558E-06 -.163E-06 0.160E-03
   -.715E-02 0.143E-05 0.130E+03   0.434E-02 -.160E-05 -.140E+03   0.468E-02 0.108E-06 0.104E+02   -.208E-06 0.139E-06 -.122E-03
   -.793E-04 0.568E-05 -.129E+03   -.608E-04 -.601E-05 0.140E+03   0.189E-03 0.475E-06 -.105E+02   0.287E-06 -.886E-07 0.127E-03
   0.129E-01 0.130E-04 0.130E+03   -.125E-01 -.131E-04 -.140E+03   -.832E-03 -.363E-06 0.104E+02   -.382E-07 0.191E-06 -.169E-03
 -----------------------------------------------------------------------------------------------
   -.176E-01 -.358E-05 0.457E-01   -.147E-13 -.197E-13 0.853E-13   0.161E-01 0.439E-05 -.445E-01   -.585E-05 0.164E-06 0.148E-04
 
 
 POSITION                                       TOTAL-FORCE (eV/Angst)
 -----------------------------------------------------------------------------------
     -0.00000      3.85110      4.36603        -0.000542      0.000000     -0.013411
      0.00000     -0.00000      8.40529         0.000249      0.000000      0.010751
      1.92555      1.92555     10.75169         0.000146      0.000000      0.015341
      1.92555      1.92555      2.01963        -0.003765      0.000001     -0.030517
      3.85110      0.00000      0.00000        -0.004276     -0.000000     -0.160091
      1.92555      1.92555      6.38566         0.000126     -0.000000      0.013000
      3.84822      0.00000      1.81247         0.006052     -0.000000      0.209693
      3.85110      0.00000     10.94927         0.002049     -0.000000     -0.011716
      1.92555      1.92555      8.20771         0.000208     -0.000000     -0.026223
      1.92555      1.92555      4.56362        -0.000246     -0.000000     -0.006826
 -----------------------------------------------------------------------------------
    total drift:                               -0.001587      0.000001      0.001232


--------------------------------------------------------------------------------------------------------



  FREE ENERGIE OF THE ION-ELECTRON SYSTEM (eV)
  ---------------------------------------------------
  free  energy   TOTEN  =      -160.73111488 eV

  energy  without entropy=     -160.73111488  energy(sigma->0) =     -160.73111488
 


--------------------------------------------------------------------------------------------------------


    POTLOK:  cpu time    0.9348: real time    0.9387


--------------------------------------------------------------------------------------------------------


     LOOP+:  cpu time  271.4915: real time  271.9388
    4ORBIT:  cpu time    0.0000: real time    0.0000
 


 total charge     
 
# of ion       s       p       d       tot
------------------------------------------
    1        2.017   5.843   0.232   8.092
    2        2.017   5.843   0.233   8.094
    3        2.017   5.843   0.233   8.094
    4        2.017   5.843   0.233   8.093
    5        0.700   0.652   9.754  11.105
    6        0.698   0.646   9.753  11.096
    7        1.258   2.392   0.000   3.650
    8        1.258   2.390   0.000   3.648
    9        1.259   2.389   0.000   3.648
   10        1.258   2.390   0.000   3.648
--------------------------------------------------
tot         14.499  34.231  20.439  69.169
 


 magnetization (x)
 
# of ion       s       p       d       tot
------------------------------------------
    1        0.000   0.000   0.000   0.000
    2        0.000   0.000   0.000   0.000
    3        0.000   0.000   0.000   0.000
    4        0.000   0.000   0.000   0.000
    5        0.000   0.000  -0.000   0.000
    6        0.000   0.000  -0.000   0.000
    7       -0.000  -0.000   0.000  -0.000
    8       -0.000  -0.000   0.000  -0.000
    9       -0.000  -0.000   0.000  -0.000
   10       -0.000  -0.000   0.000  -0.000
--------------------------------------------------
tot          0.000  -0.000   0.000  -0.000
 

 total amount of memory used by VASP MPI-rank0   107651. kBytes
=======================================================================

   base      :      30000. kBytes
   nonl-proj :      55074. kBytes
   fftplans  :       1092. kBytes
   grid      :       4533. kBytes
   one-center:         93. kBytes
   wavefun   :      16859. kBytes
 
  
  
 General timing and accounting informations for this job:
 ========================================================
  
                  Total CPU time used (sec):      280.705
                            User time (sec):      273.578
                          System time (sec):        7.127
                         Elapsed time (sec):      281.885
  
                   Maximum memory used (kb):      169740.
                   Average memory used (kb):           0.
  
                          Minor page faults:        49731
                          Major page faults:            0
                 Voluntary context switches:          744
