 vasp.6.1.2 22Jul20 (build Apr 14 2021 21:39:43) complex                        
  
 executed on             LinuxIFC date 2022.12.02  18:31:12
 running on   64 total cores
 distrk:  each k-point on   64 cores,    1 groups
 distr:  one band on NCORE=   4 cores,   16 groups


--------------------------------------------------------------------------------------------------------


 INCAR:
 POTCAR:    PAW_PBE Sr_sv 07Sep2000               
 POTCAR:    PAW_PBE Zn 06Sep2000                  
 POTCAR:    PAW_PBE N 08Apr2002                   
 POTCAR:    PAW_PBE Sr_sv 07Sep2000               
   SHA256 =  a8389d3481648516ee67182ee030b298d280b37e29cbbf2d8595f040d757c710 Sr_sv/POTCAR          
   COPYR  = (c) Copyright 07Sep2000 Georg Kresse                                                    
   COPYR  = This file is part of the software VASP. Any use, copying, and all other rights are regul
   COPYR  = If you do not have a valid VASP license, you may not use, copy or distribute this file. 
   VRHFIN =Sr: 4s4p5s                                                                               
   LEXCH  = PE                                                                                      
   EATOM  =   843.0319 eV,   61.9611 Ry                                                             
                                                                                                    
   TITEL  = PAW_PBE Sr_sv 07Sep2000                                                                 
   LULTRA =        F    use ultrasoft PP ?                                                          
   IUNSCR =        1    unscreen: 0-lin 1-nonlin 2-no                                               
   RPACOR =    2.200    partial core radius                                                         
   POMASS =   87.620; ZVAL   =   10.000    mass and valenz                                          
   RCORE  =    2.500    outmost cutoff radius                                                       
   RWIGS  =    4.040; RWIGS  =    2.138    wigner-seitz radius (au A)                               
   ENMAX  =  229.353; ENMIN  =  172.014 eV                                                          
   RCLOC  =    2.201    cutoff for local pot                                                        
   LCOR   =        T    correct aug charges                                                         
   LPAW   =        T    paw PP                                                                      
   EAUG   =  366.804                                                                                
   DEXC   =    0.000                                                                                
   RMAX   =    2.547    core radius for proj-oper                                                   
   RAUG   =    1.300    factor for augmentation sphere                                              
   RDEP   =    2.562    radius for radial grids                                                     
   RDEPT  =    2.128    core radius for aug-charge                                                  
                                                                                                    
   Atomic configuration                                                                             
   10 entries                                                                                       
     n  l   j            E        occ.                                                              
     1  0  0.50    -15934.8930   2.0000                                                             
     2  0  0.50     -2157.6250   2.0000                                                             
     2  1  1.50     -1917.0034   6.0000                                                             
     3  0  0.50      -333.7288   2.0000                                                             
     3  1  1.50      -256.0992   6.0000                                                             
     3  2  2.50      -127.9971  10.0000                                                             
     4  0  0.50       -40.8953   2.0000                                                             
     5  0  0.50        -3.5257   1.9990                                                             
     4  1  1.50       -22.8179   6.0000                                                             
     4  2  1.50        -1.2815   0.0010                                                             
   Description                                                                                      
     l       E           TYP  RCUT    TYP  RCUT                                                     
     0    -40.8953213     23  2.480                                                                 
     0     -3.5257161     23  2.480                                                                 
     1    -22.8178632     23  2.500                                                                 
     1    -24.1784458     23  2.500                                                                 
     2     -1.2814598     23  2.500                                                                 
     2      0.2279365     23  2.500                                                                 
  local pseudopotential read in
  partial core-charges read in
  partial kinetic energy density read in
  atomic valenz-charges read in
  non local Contribution for L=           0  read in
    real space projection operators read in
  non local Contribution for L=           0  read in
    real space projection operators read in
  non local Contribution for L=           1  read in
    real space projection operators read in
  non local Contribution for L=           1  read in
    real space projection operators read in
  non local Contribution for L=           2  read in
    real space projection operators read in
  non local Contribution for L=           2  read in
    real space projection operators read in
    PAW grid and wavefunctions read in
 
   number of l-projection  operators is LMAX  =           6
   number of lm-projection operators is LMMAX =          18
 
 POTCAR:    PAW_PBE Zn 06Sep2000                  
   SHA256 =  501fddbd8274dd8e9725d4f3de27861d7f1e553a7e18441bc79fed8f346e7f23 Zn/POTCAR             
   COPYR  = (c) Copyright 06Sep2000 Georg Kresse                                                    
   COPYR  = This file is part of the software VASP. Any use, copying, and all other rights are regul
   COPYR  = If you do not have a valid VASP license, you may not use, copy or distribute this file. 
   VRHFIN =Zn: d10 p2                                                                               
   LEXCH  = PE                                                                                      
   EATOM  =  1748.8345 eV,  128.5357 Ry                                                             
                                                                                                    
   TITEL  = PAW_PBE Zn 06Sep2000                                                                    
   LULTRA =        F    use ultrasoft PP ?                                                          
   IUNSCR =        1    unscreen: 0-lin 1-nonlin 2-no                                               
   RPACOR =    2.000    partial core radius                                                         
   POMASS =   65.390; ZVAL   =   12.000    mass and valenz                                          
   RCORE  =    2.300    outmost cutoff radius                                                       
   RWIGS  =    2.400; RWIGS  =    1.270    wigner-seitz radius (au A)                               
   ENMAX  =  276.723; ENMIN  =  207.542 eV                                                          
   RCLOC  =    1.828    cutoff for local pot                                                        
   LCOR   =        T    correct aug charges                                                         
   LPAW   =        T    paw PP                                                                      
   EAUG   =  575.892                                                                                
   DEXC   =    0.000                                                                                
   RMAX   =    2.347    core radius for proj-oper                                                   
   RAUG   =    1.300    factor for augmentation sphere                                              
   RDEP   =    2.324    radius for radial grids                                                     
   RDEPT  =    1.788    core radius for aug-charge                                                  
                                                                                                    
   Atomic configuration                                                                             
    9 entries                                                                                       
     n  l   j            E        occ.                                                              
     1  0  0.50     -9524.6913   2.0000                                                             
     2  0  0.50     -1158.1882   2.0000                                                             
     2  1  1.50     -1003.8506   6.0000                                                             
     3  0  0.50      -129.2194   2.0000                                                             
     3  1  1.50       -83.3890   6.0000                                                             
     3  2  2.50       -10.1410  10.0000                                                             
     4  0  0.50        -5.9785   2.0000                                                             
     4  1  0.50        -4.0817   0.0000                                                             
     4  3  2.50        -1.3606   0.0000                                                             
   Description                                                                                      
     l       E           TYP  RCUT    TYP  RCUT                                                     
     2    -10.1410010     23  2.300                                                                 
     2    -11.5015836     23  2.300                                                                 
     0     -5.9785163     23  2.300                                                                 
     0      1.1858015     23  2.300                                                                 
     1     -2.7211652     23  2.300                                                                 
     1     13.2444212     23  2.300                                                                 
  local pseudopotential read in
  partial core-charges read in
  partial kinetic energy density read in
  atomic valenz-charges read in
  non local Contribution for L=           2  read in
    real space projection operators read in
  non local Contribution for L=           2  read in
    real space projection operators read in
  non local Contribution for L=           0  read in
    real space projection operators read in
  non local Contribution for L=           0  read in
    real space projection operators read in
  non local Contribution for L=           1  read in
    real space projection operators read in
  non local Contribution for L=           1  read in
    real space projection operators read in
    PAW grid and wavefunctions read in
 
   number of l-projection  operators is LMAX  =           6
   number of lm-projection operators is LMMAX =          18
 
 POTCAR:    PAW_PBE N 08Apr2002                   
   SHA256 =  e053789ff3a61a86a1b75d8a110fcc91f86041011e7b0817c7c99e4e8a6349d7 N/POTCAR              
   COPYR  = (c) Copyright 08Apr2002 Georg Kresse                                                    
   COPYR  = This file is part of the software VASP. Any use, copying, and all other rights are regul
   COPYR  = If you do not have a valid VASP license, you may not use, copy or distribute this file. 
   VRHFIN =N: s2p3                                                                                  
   LEXCH  = PE                                                                                      
   EATOM  =   264.5486 eV,   19.4438 Ry                                                             
                                                                                                    
   TITEL  = PAW_PBE N 08Apr2002                                                                     
   LULTRA =        F    use ultrasoft PP ?                                                          
   IUNSCR =        1    unscreen: 0-lin 1-nonlin 2-no                                               
   RPACOR =    1.200    partial core radius                                                         
   POMASS =   14.001; ZVAL   =    5.000    mass and valenz                                          
   RCORE  =    1.500    outmost cutoff radius                                                       
   RWIGS  =    1.400; RWIGS  =    0.741    wigner-seitz radius (au A)                               
   ENMAX  =  400.000; ENMIN  =  300.000 eV                                                          
   ICORE  =        2    local potential                                                             
   LCOR   =        T    correct aug charges                                                         
   LPAW   =        T    paw PP                                                                      
   EAUG   =  627.112                                                                                
   DEXC   =    0.000                                                                                
   RMAX   =    1.529    core radius for proj-oper                                                   
   RAUG   =    1.300    factor for augmentation sphere                                              
   RDEP   =    1.514    radius for radial grids                                                     
   RDEPT  =    1.338    core radius for aug-charge                                                  
                                                                                                    
   Atomic configuration                                                                             
    4 entries                                                                                       
     n  l   j            E        occ.                                                              
     1  0  0.50      -384.7179   2.0000                                                             
     2  0  0.50       -18.5828   2.0000                                                             
     2  1  0.50        -7.0898   3.0000                                                             
     3  2  1.50        -6.8029   0.0000                                                             
   Description                                                                                      
     l       E           TYP  RCUT    TYP  RCUT                                                     
     0    -18.5828119     23  1.200                                                                 
     0    -13.5018863     23  1.200                                                                 
     1     -7.0897853     23  1.500                                                                 
     1      9.5240782     23  1.500                                                                 
     2     -6.8029130      7  1.500                                                                 
  local pseudopotential read in
  partial core-charges read in
  partial kinetic energy density read in
  atomic valenz-charges read in
  non local Contribution for L=           0  read in
    real space projection operators read in
  non local Contribution for L=           0  read in
    real space projection operators read in
  non local Contribution for L=           1  read in
    real space projection operators read in
  non local Contribution for L=           1  read in
    real space projection operators read in
    PAW grid and wavefunctions read in
 
   number of l-projection  operators is LMAX  =           4
   number of lm-projection operators is LMMAX =           8
 
  PAW_PBE Sr_sv 07Sep2000               :
 energy of atom  1       EATOM= -843.0319
 kinetic energy error for atom=    0.0010 (will be added to EATOM!!)
  PAW_PBE Zn 06Sep2000                  :
 energy of atom  2       EATOM=-1748.8345
 kinetic energy error for atom=    0.0029 (will be added to EATOM!!)
  PAW_PBE N 08Apr2002                   :
 energy of atom  3       EATOM= -264.5486
 kinetic energy error for atom=    0.0125 (will be added to EATOM!!)
 
 
 POSCAR: generated by phonopy
  positions in direct lattice
  No initial velocities read in

 METAGGA = SCAN     LMAXTAU =  6    LMIXTAU =  F

 exchange correlation table for  LEXCH =        8
   RHO(1)=    0.500       N(1)  =     2000
   RHO(2)=  100.500       N(2)  =     4000
 


--------------------------------------------------------------------------------------------------------


 ion  position               nearest neighbor table
   1  0.000  1.000  0.342-   7 2.53  10 2.73  10 2.73  10 2.73  10 2.73   6 3.39   6 3.39   6 3.39
                             6 3.39   4 3.59   4 3.59   4 3.59   4 3.59   2 4.04
   2  0.000  0.000  0.658-   8 2.54   9 2.73   9 2.73   9 2.73   9 2.73   6 3.39   6 3.39   6 3.39
                             6 3.39   3 3.59   3 3.59   3 3.59   3 3.59   1 4.04
   3  0.500  0.500  0.842-   9 2.54   8 2.73   8 2.73   8 2.73   8 2.73   5 3.39   5 3.39   5 3.39
                             5 3.39   2 3.59   2 3.59   2 3.59   2 3.59   4 4.04
   4  0.500  0.500  0.158-  10 2.54   7 2.73   7 2.73   7 2.73   7 2.73   5 3.39   5 3.39   5 3.39
                             5 3.39   1 3.59   1 3.59   1 3.59   1 3.59   3 4.04
   5  1.000  0.000  0.000-   8 1.82   7 1.83   4 3.39   4 3.39   4 3.39   4 3.39   3 3.39   3 3.39
                             3 3.39   3 3.39
   6  0.500  0.500  0.500-  10 1.82   9 1.82   1 3.39   1 3.39   1 3.39   1 3.39   2 3.39   2 3.39
                             2 3.39   2 3.39
   7  0.001  0.000  0.143-   5 1.83   1 2.53   4 2.73   4 2.73   4 2.73   4 2.73
   8  1.000  0.000  0.857-   5 1.82   2 2.54   3 2.73   3 2.73   3 2.73   3 2.73
   9  0.500  0.500  0.643-   6 1.82   3 2.54   2 2.73   2 2.73   2 2.73   2 2.73
  10  0.500  0.500  0.357-   6 1.82   4 2.54   1 2.73   1 2.73   1 2.73   1 2.73
 

IMPORTANT INFORMATION: All symmetrisations will be switched off!
NOSYMM: (Re-)initialisation of all symmetry stuff for point group C_1.


----------------------------------------------------------------------------------------

                                     Primitive cell                                     

  volume of cell :     189.4114

  direct lattice vectors                    reciprocal lattice vectors
     3.851102821  0.000000006 -0.000000101     0.259665879 -0.000000000  0.000000007
     0.000000007  3.851102715 -0.000000006    -0.000000000  0.259665886  0.000000000
    -0.000000333 -0.000000021 12.771321364     0.000000002  0.000000000  0.078300434

  length of vectors
     3.851102821  3.851102715 12.771321364     0.259665879  0.259665886  0.078300434

  position of ions in fractional coordinates (direct lattice)
     0.000000015  0.999999969  0.341862114
     0.000000070  0.000000002  0.658137891
     0.500000049  0.500000008  0.841862095
     0.500000072  0.499999952  0.158137898
     0.999999990  0.000000014  0.000000255
     0.499999982  0.500000015  0.499999745
     0.000749632  0.000000005  0.143416621
     0.999999949  0.000000014  0.857332824
     0.499999967  0.500000003  0.642667132
     0.499999936  0.500000017  0.357333087

  ion indices of the primitive-cell ions
   primitive index   ion index
                 1           1
                 2           2
                 3           3
                 4           4
                 5           5
                 6           6
                 7           7
                 8           8
                 9           9
                10          10

----------------------------------------------------------------------------------------

 
 
 KPOINTS: Kpoints                                 

Automatic generation of k-mesh.
 generate k-points for:    8    8    3
Space group operators:
 irot       det(A)        alpha          n_x          n_y          n_z        tau_x        tau_y        tau_z
    1     1.000000     0.000000     1.000000     0.000000     0.000000     0.000000     0.000000     0.000000
 
 Subroutine IBZKPT returns following result:
 ===========================================
 
 Found     98 irreducible k-points:
 
 Following reciprocal coordinates:
            Coordinates               Weight
  0.000000  0.000000  0.000000      1.000000
  0.125000  0.000000  0.000000      2.000000
  0.000000  0.125000  0.000000      2.000000
  0.250000  0.000000  0.000000      2.000000
  0.000000  0.250000  0.000000      2.000000
  0.375000 -0.000000  0.000000      2.000000
  0.000000  0.375000 -0.000000      2.000000
  0.500000  0.000000  0.000000      1.000000
  0.000000  0.500000 -0.000000      1.000000
  0.125000  0.125000  0.000000      2.000000
 -0.125000  0.125000  0.000000      2.000000
  0.250000  0.125000  0.000000      2.000000
 -0.125000  0.250000  0.000000      2.000000
 -0.250000  0.125000  0.000000      2.000000
  0.125000  0.250000  0.000000      2.000000
  0.375000  0.125000  0.000000      2.000000
 -0.125000  0.375000 -0.000000      2.000000
 -0.375000  0.125000  0.000000      2.000000
  0.125000  0.375000 -0.000000      2.000000
  0.500000  0.125000  0.000000      2.000000
 -0.125000  0.500000 -0.000000      2.000000
  0.250000  0.250000  0.000000      2.000000
 -0.250000  0.250000  0.000000      2.000000
  0.375000  0.250000  0.000000      2.000000
 -0.250000  0.375000 -0.000000      2.000000
 -0.375000  0.250000  0.000000      2.000000
  0.250000  0.375000 -0.000000      2.000000
  0.500000  0.250000  0.000000      2.000000
 -0.250000  0.500000 -0.000000      2.000000
  0.375000  0.375000 -0.000000      2.000000
 -0.375000  0.375000 -0.000000      2.000000
  0.500000  0.375000 -0.000000      2.000000
 -0.375000  0.500000 -0.000000      2.000000
  0.500000  0.500000 -0.000000      1.000000
  0.000000  0.000000  0.333333      2.000000
  0.125000 -0.000000  0.333333      2.000000
 -0.000000  0.125000  0.333333      2.000000
 -0.125000 -0.000000  0.333333      2.000000
 -0.000000 -0.125000  0.333333      2.000000
  0.250000  0.000000  0.333333      2.000000
 -0.000000  0.250000  0.333333      2.000000
 -0.250000  0.000000  0.333333      2.000000
  0.000000 -0.250000  0.333333      2.000000
  0.375000 -0.000000  0.333333      2.000000
  0.000000  0.375000  0.333333      2.000000
 -0.375000  0.000000  0.333333      2.000000
  0.000000 -0.375000  0.333333      2.000000
  0.500000  0.000000  0.333333      2.000000
 -0.000000  0.500000  0.333333      2.000000
  0.125000  0.125000  0.333333      2.000000
 -0.125000  0.125000  0.333333      2.000000
 -0.125000 -0.125000  0.333333      2.000000
  0.125000 -0.125000  0.333333      2.000000
  0.250000  0.125000  0.333333      2.000000
 -0.125000  0.250000  0.333333      2.000000
 -0.250000 -0.125000  0.333333      2.000000
  0.125000 -0.250000  0.333333      2.000000
 -0.250000  0.125000 -0.333333      2.000000
  0.125000  0.250000 -0.333333      2.000000
  0.250000 -0.125000 -0.333333      2.000000
 -0.125000 -0.250000 -0.333333      2.000000
  0.375000  0.125000  0.333333      2.000000
 -0.125000  0.375000  0.333333      2.000000
 -0.375000 -0.125000  0.333333      2.000000
  0.125000 -0.375000  0.333333      2.000000
 -0.375000  0.125000 -0.333333      2.000000
  0.125000  0.375000 -0.333333      2.000000
  0.375000 -0.125000 -0.333333      2.000000
 -0.125000 -0.375000 -0.333333      2.000000
  0.500000  0.125000  0.333333      2.000000
 -0.125000  0.500000  0.333333      2.000000
  0.500000 -0.125000  0.333333      2.000000
  0.125000  0.500000  0.333333      2.000000
  0.250000  0.250000  0.333333      2.000000
 -0.250000  0.250000  0.333333      2.000000
 -0.250000 -0.250000  0.333333      2.000000
  0.250000 -0.250000  0.333333      2.000000
  0.375000  0.250000  0.333333      2.000000
 -0.250000  0.375000  0.333333      2.000000
 -0.375000 -0.250000  0.333333      2.000000
  0.250000 -0.375000  0.333333      2.000000
 -0.375000  0.250000 -0.333333      2.000000
  0.250000  0.375000 -0.333333      2.000000
  0.375000 -0.250000 -0.333333      2.000000
 -0.250000 -0.375000 -0.333333      2.000000
  0.500000  0.250000  0.333333      2.000000
 -0.250000  0.500000  0.333333      2.000000
  0.500000 -0.250000  0.333333      2.000000
  0.250000  0.500000  0.333333      2.000000
  0.375000  0.375000  0.333333      2.000000
 -0.375000  0.375000  0.333333      2.000000
 -0.375000 -0.375000  0.333333      2.000000
  0.375000 -0.375000  0.333333      2.000000
  0.500000  0.375000  0.333333      2.000000
 -0.375000  0.500000  0.333333      2.000000
  0.500000 -0.375000  0.333333      2.000000
  0.375000  0.500000  0.333333      2.000000
  0.500000  0.500000  0.333333      2.000000
 
 Following cartesian coordinates:
            Coordinates               Weight
  0.000000  0.000000  0.000000      1.000000
  0.032458 -0.000000  0.000000      2.000000
 -0.000000  0.032458  0.000000      2.000000
  0.064916 -0.000000  0.000000      2.000000
 -0.000000  0.064916  0.000000      2.000000
  0.097375 -0.000000  0.000000      2.000000
 -0.000000  0.097375  0.000000      2.000000
  0.129833 -0.000000  0.000000      1.000000
 -0.000000  0.129833  0.000000      1.000000
  0.032458  0.032458  0.000000      2.000000
 -0.032458  0.032458 -0.000000      2.000000
  0.064916  0.032458  0.000000      2.000000
 -0.032458  0.064916 -0.000000      2.000000
 -0.064916  0.032458 -0.000000      2.000000
  0.032458  0.064916  0.000000      2.000000
  0.097375  0.032458  0.000000      2.000000
 -0.032458  0.097375 -0.000000      2.000000
 -0.097375  0.032458 -0.000000      2.000000
  0.032458  0.097375  0.000000      2.000000
  0.129833  0.032458  0.000000      2.000000
 -0.032458  0.129833 -0.000000      2.000000
  0.064916  0.064916  0.000000      2.000000
 -0.064916  0.064916 -0.000000      2.000000
  0.097375  0.064916  0.000000      2.000000
 -0.064916  0.097375 -0.000000      2.000000
 -0.097375  0.064916 -0.000000      2.000000
  0.064916  0.097375  0.000000      2.000000
  0.129833  0.064916  0.000000      2.000000
 -0.064916  0.129833 -0.000000      2.000000
  0.097375  0.097375  0.000000      2.000000
 -0.097375  0.097375 -0.000000      2.000000
  0.129833  0.097375  0.000000      2.000000
 -0.097375  0.129833 -0.000000      2.000000
  0.129833  0.129833  0.000000      1.000000
  0.000000  0.000000  0.026100      2.000000
  0.032458 -0.000000  0.026100      2.000000
  0.000000  0.032458  0.026100      2.000000
 -0.032458  0.000000  0.026100      2.000000
  0.000000 -0.032458  0.026100      2.000000
  0.064916 -0.000000  0.026100      2.000000
  0.000000  0.064916  0.026100      2.000000
 -0.064916  0.000000  0.026100      2.000000
  0.000000 -0.064916  0.026100      2.000000
  0.097375 -0.000000  0.026100      2.000000
  0.000000  0.097375  0.026100      2.000000
 -0.097375  0.000000  0.026100      2.000000
  0.000000 -0.097375  0.026100      2.000000
  0.129833 -0.000000  0.026100      2.000000
  0.000000  0.129833  0.026100      2.000000
  0.032458  0.032458  0.026100      2.000000
 -0.032458  0.032458  0.026100      2.000000
 -0.032458 -0.032458  0.026100      2.000000
  0.032458 -0.032458  0.026100      2.000000
  0.064916  0.032458  0.026100      2.000000
 -0.032458  0.064916  0.026100      2.000000
 -0.064916 -0.032458  0.026100      2.000000
  0.032458 -0.064916  0.026100      2.000000
 -0.064916  0.032458 -0.026100      2.000000
  0.032458  0.064916 -0.026100      2.000000
  0.064916 -0.032458 -0.026100      2.000000
 -0.032458 -0.064916 -0.026100      2.000000
  0.097375  0.032458  0.026100      2.000000
 -0.032458  0.097375  0.026100      2.000000
 -0.097375 -0.032458  0.026100      2.000000
  0.032458 -0.097375  0.026100      2.000000
 -0.097375  0.032458 -0.026100      2.000000
  0.032458  0.097375 -0.026100      2.000000
  0.097375 -0.032458 -0.026100      2.000000
 -0.032458 -0.097375 -0.026100      2.000000
  0.129833  0.032458  0.026100      2.000000
 -0.032458  0.129833  0.026100      2.000000
  0.129833 -0.032458  0.026100      2.000000
  0.032458  0.129833  0.026100      2.000000
  0.064916  0.064916  0.026100      2.000000
 -0.064916  0.064916  0.026100      2.000000
 -0.064916 -0.064916  0.026100      2.000000
  0.064916 -0.064916  0.026100      2.000000
  0.097375  0.064916  0.026100      2.000000
 -0.064916  0.097375  0.026100      2.000000
 -0.097375 -0.064916  0.026100      2.000000
  0.064916 -0.097375  0.026100      2.000000
 -0.097375  0.064916 -0.026100      2.000000
  0.064916  0.097375 -0.026100      2.000000
  0.097375 -0.064916 -0.026100      2.000000
 -0.064916 -0.097375 -0.026100      2.000000
  0.129833  0.064916  0.026100      2.000000
 -0.064916  0.129833  0.026100      2.000000
  0.129833 -0.064916  0.026100      2.000000
  0.064916  0.129833  0.026100      2.000000
  0.097375  0.097375  0.026100      2.000000
 -0.097375  0.097375  0.026100      2.000000
 -0.097375 -0.097375  0.026100      2.000000
  0.097375 -0.097375  0.026100      2.000000
  0.129833  0.097375  0.026100      2.000000
 -0.097375  0.129833  0.026100      2.000000
  0.129833 -0.097375  0.026100      2.000000
  0.097375  0.129833  0.026100      2.000000
  0.129833  0.129833  0.026100      2.000000
 


--------------------------------------------------------------------------------------------------------




 Dimension of arrays:
   k-points           NKPTS =     98   k-points in BZ     NKDIM =     98   number of bands    NBANDS=     64
   number of dos      NEDOS =    301   number of ions     NIONS =     10
   non local maximal  LDIM  =      6   non local SUM 2l+1 LMDIM =     18
   total plane-waves  NPLWV =  86400
   max r-space proj   IRMAX =      1   max aug-charges    IRDMAX=  26943
   dimension x,y,z NGX =    30 NGY =   30 NGZ =   96
   dimension x,y,z NGXF=    60 NGYF=   60 NGZF=  192
   support grid    NGXF=    60 NGYF=   60 NGZF=  192
   ions per type =               4   2   4
   NGX,Y,Z   is equivalent  to a cutoff of  12.95, 12.95, 12.50 a.u.
   NGXF,Y,Z  is equivalent  to a cutoff of  25.90, 25.90, 24.99 a.u.

 SYSTEM =  unknown system                          
 POSCAR =  generated by phonopy                    

 Startparameter for this run:
   NWRITE =      2    write-flag & timer
   PREC   = accura    normal or accurate (medium, high low for compatibility)
   ISTART =      0    job   : 0-new  1-cont  2-samecut
   ICHARG =      2    charge: 1-file 2-atom 10-const
   ISPIN  =      2    spin polarized calculation?
   LNONCOLLINEAR =      F non collinear calculations
   LSORBIT =      F    spin-orbit coupling
   INIWAV =      1    electr: 0-lowe 1-rand  2-diag
   LASPH  =      T    aspherical Exc in radial PAW
   METAGGA=      F    non-selfconsistent MetaGGA calc.

 Electronic Relaxation 1
   ENCUT  =  520.0 eV  38.22 Ry    6.18 a.u.   7.16  7.16 23.75*2*pi/ulx,y,z
   ENINI  =  520.0     initial cutoff
   ENAUG  =  627.1 eV  augmentation charge cutoff
   NELM   =    200;   NELMIN=  6; NELMDL= -5     # of ELM steps 
   EDIFF  = 0.1E-05   stopping-criterion for ELM
   LREAL  =      F    real-space projection
   NLSPLINE    = F    spline interpolate recip. space projectors
   LCOMPAT=      F    compatible to vasp.4.4
   GGA_COMPAT  = T    GGA compatible to vasp.4.4-vasp.4.6
   LMAXPAW     = -100 max onsite density
   LMAXMIX     =    2 max onsite mixed and CHGCAR
   VOSKOWN=      0    Vosko Wilk Nusair interpolation
   ROPT   =    0.00000   0.00000   0.00000
 Ionic relaxation
   EDIFFG = -.3E-01   stopping-criterion for IOM
   NSW    =      0    number of steps for IOM
   NBLOCK =      1;   KBLOCK =      1    inner block; outer block 
   IBRION =     -1    ionic relax: 0-MD 1-quasi-New 2-CG
   NFREE  =      0    steps in history (QN), initial steepest desc. (CG)
   ISIF   =      2    stress and relaxation
   IWAVPR =     10    prediction:  0-non 1-charg 2-wave 3-comb
   ISYM   =      0    0-nonsym 1-usesym 2-fastsym
   LCORR  =      T    Harris-Foulkes like correction to forces

   POTIM  = 0.5000    time-step for ionic-motion
   TEIN   =    0.0    initial temperature
   TEBEG  =    0.0;   TEEND  =   0.0 temperature during run
   SMASS  =  -3.00    Nose mass-parameter (am)
   estimated Nose-frequenzy (Omega)   =  0.10E-29 period in steps = 0.13E+47 mass=  -0.339E-27a.u.
   SCALEE = 1.0000    scale energy and forces
   NPACO  =    256;   APACO  = 16.0  distance and # of slots for P.C.
   PSTRESS=    0.0 pullay stress

  Mass of Ions in am
   POMASS =  87.62 65.39 14.00
  Ionic Valenz
   ZVAL   =  10.00 12.00  5.00
  Atomic Wigner-Seitz radii
   RWIGS  =  -1.00 -1.00 -1.00
  virtual crystal weights 
   VCA    =   1.00  1.00  1.00
   NELECT =      84.0000    total number of electrons
   NUPDOWN=      -1.0000    fix difference up-down

 DOS related values:
   EMIN   =  10.00;   EMAX   =-10.00  energy-range for DOS
   EFERMI =   0.00
   ISMEAR =     0;   SIGMA  =   0.05  broadening in eV -4-tet -1-fermi 0-gaus

 Electronic relaxation 2 (details)
   IALGO  =     38    algorithm
   LDIAG  =      T    sub-space diagonalisation (order eigenvalues)
   LSUBROT=      F    optimize rotation matrix (better conditioning)
   TURBO    =      0    0=normal 1=particle mesh
   IRESTART =      0    0=no restart 2=restart with 2 vectors
   NREBOOT  =      0    no. of reboots
   NMIN     =      0    reboot dimension
   EREF     =   0.00    reference energy to select bands
   IMIX   =      4    mixing-type and parameters
     AMIX     =   0.40;   BMIX     =  1.00
     AMIX_MAG =   1.60;   BMIX_MAG =  1.00
     AMIN     =   0.10
     WC   =   100.;   INIMIX=   1;  MIXPRE=   1;  MAXMIX= -45

 Intra band minimization:
   WEIMIN = 0.0000     energy-eigenvalue tresh-hold
   EBREAK =  0.39E-08  absolut break condition
   DEPER  =   0.30     relativ break condition  

   TIME   =   0.40     timestep for ELM

  volume/ion in A,a.u.               =      18.94       127.82
  Fermi-wavevector in a.u.,A,eV,Ry     =   1.248435  2.359200 21.205901  1.558590
  Thomas-Fermi vector in A             =   2.382522
 
 Write flags
   LWAVE        =      F    write WAVECAR
   LDOWNSAMPLE  =      F    k-point downsampling of WAVECAR
   LCHARG       =      F    write CHGCAR
   LVTOT        =      F    write LOCPOT, total local potential
   LVHAR        =      F    write LOCPOT, Hartree potential only
   LELF         =      F    write electronic localiz. function (ELF)
   LORBIT       =     11    0 simple, 1 ext, 2 COOP (PROOUT), +10 PAW based schemes


 Dipole corrections
   LMONO  =      F    monopole corrections only (constant potential shift)
   LDIPOL =      F    correct potential (dipole corrections)
   IDIPOL =      0    1-x, 2-y, 3-z, 4-all directions 
   EPSILON=  1.0000000 bulk dielectric constant

 Exchange correlation treatment:
   GGA     =    --    GGA type
   LEXCH   =     8    internal setting for exchange type
   VOSKOWN=      0    Vosko Wilk Nusair interpolation
   LHFCALC =     F    Hartree Fock is set to
   LHFONE  =     F    Hartree Fock one center treatment
   AEXX    =    0.0000 exact exchange contribution

 Linear response parameters
   LEPSILON=     F    determine dielectric tensor
   LRPA    =     F    only Hartree local field effects (RPA)
   LNABLA  =     F    use nabla operator in PAW spheres
   LVEL    =     F    velocity operator in full k-point grid
   LINTERFAST=   F  fast interpolation
   KINTER  =     0    interpolate to denser k-point grid
   CSHIFT  =0.1000    complex shift for real part using Kramers Kronig
   OMEGAMAX=  -1.0    maximum frequency
   DEG_THRESHOLD= 0.2000000E-02 threshold for treating states as degnerate
   RTIME   =   -0.100 relaxation time in fs
  (WPLASMAI=    0.000 imaginary part of plasma frequency in eV, 0.658/RTIME)
   DFIELD  = 0.0000000 0.0000000 0.0000000 field for delta impulse in time
 
 Orbital magnetization related:
   ORBITALMAG=     F  switch on orbital magnetization
   LCHIMAG   =     F  perturbation theory with respect to B field
   DQ        =  0.001000  dq finite difference perturbation B field
   LLRAUG    =     F  two centre corrections for induced B field



--------------------------------------------------------------------------------------------------------


 Static calculation
 charge density and potential will be updated during run
 spin polarized calculation
 Variant of blocked Davidson
 Davidson routine will perform the subspace rotation
 perform sub-space diagonalisation
    after iterative eigenvector-optimisation
 modified Broyden-mixing scheme, WC =      100.0
 initial mixing is a Kerker type mixing with AMIX =  0.4000 and BMIX =      1.0000
 Hartree-type preconditioning will be used
 using additional bands           22
 reciprocal scheme for non local part
 use partial core corrections
 calculate Harris-corrections to forces 
   (improved forces if not selfconsistent)
 use gradient corrections 
 use of overlap-Matrix (Vanderbilt PP)
 Gauss-broadening in eV      SIGMA  =   0.05


--------------------------------------------------------------------------------------------------------


  energy-cutoff  :      520.00
  volume of cell :      189.41
      direct lattice vectors                 reciprocal lattice vectors
     3.851102821  0.000000006 -0.000000101     0.259665879 -0.000000000  0.000000007
     0.000000007  3.851102715 -0.000000006    -0.000000000  0.259665886  0.000000000
    -0.000000333 -0.000000021 12.771321364     0.000000002  0.000000000  0.078300434

  length of vectors
     3.851102821  3.851102715 12.771321364     0.259665879  0.259665886  0.078300434


 
 k-points in units of 2pi/SCALE and weight: Kpoints                                 
   0.00000000  0.00000000  0.00000000       0.005
   0.03245823 -0.00000000  0.00000000       0.010
  -0.00000000  0.03245824  0.00000000       0.010
   0.06491647 -0.00000000  0.00000000       0.010
  -0.00000000  0.06491647  0.00000000       0.010
   0.09737470 -0.00000000  0.00000000       0.010
  -0.00000000  0.09737471  0.00000000       0.010
   0.12983294 -0.00000000  0.00000000       0.005
  -0.00000000  0.12983294  0.00000000       0.005
   0.03245823  0.03245824  0.00000000       0.010
  -0.03245823  0.03245824 -0.00000000       0.010
   0.06491647  0.03245824  0.00000000       0.010
  -0.03245824  0.06491647 -0.00000000       0.010
  -0.06491647  0.03245824 -0.00000000       0.010
   0.03245823  0.06491647  0.00000000       0.010
   0.09737470  0.03245824  0.00000000       0.010
  -0.03245824  0.09737471 -0.00000000       0.010
  -0.09737470  0.03245824 -0.00000000       0.010
   0.03245823  0.09737471  0.00000000       0.010
   0.12983294  0.03245824  0.00000000       0.010
  -0.03245824  0.12983294 -0.00000000       0.010
   0.06491647  0.06491647  0.00000000       0.010
  -0.06491647  0.06491647 -0.00000000       0.010
   0.09737470  0.06491647  0.00000000       0.010
  -0.06491647  0.09737471 -0.00000000       0.010
  -0.09737470  0.06491647 -0.00000000       0.010
   0.06491647  0.09737471  0.00000000       0.010
   0.12983294  0.06491647  0.00000000       0.010
  -0.06491647  0.12983294 -0.00000000       0.010
   0.09737470  0.09737471  0.00000000       0.010
  -0.09737470  0.09737471 -0.00000000       0.010
   0.12983294  0.09737471  0.00000000       0.010
  -0.09737470  0.12983294 -0.00000000       0.010
   0.12983294  0.12983294  0.00000000       0.005
   0.00000000  0.00000000  0.02610014       0.010
   0.03245824 -0.00000000  0.02610015       0.010
   0.00000000  0.03245824  0.02610014       0.010
  -0.03245823  0.00000000  0.02610014       0.010
   0.00000000 -0.03245824  0.02610014       0.010
   0.06491647 -0.00000000  0.02610015       0.010
   0.00000000  0.06491647  0.02610014       0.010
  -0.06491647  0.00000000  0.02610014       0.010
   0.00000000 -0.06491647  0.02610014       0.010
   0.09737471 -0.00000000  0.02610015       0.010
   0.00000000  0.09737471  0.02610014       0.010
  -0.09737470  0.00000000  0.02610014       0.010
   0.00000000 -0.09737471  0.02610014       0.010
   0.12983294 -0.00000000  0.02610015       0.010
   0.00000000  0.12983294  0.02610014       0.010
   0.03245824  0.03245824  0.02610015       0.010
  -0.03245823  0.03245824  0.02610014       0.010
  -0.03245823 -0.03245824  0.02610014       0.010
   0.03245824 -0.03245824  0.02610015       0.010
   0.06491647  0.03245824  0.02610015       0.010
  -0.03245823  0.06491647  0.02610014       0.010
  -0.06491647 -0.03245824  0.02610014       0.010
   0.03245824 -0.06491647  0.02610015       0.010
  -0.06491647  0.03245824 -0.02610015       0.010
   0.03245823  0.06491647 -0.02610014       0.010
   0.06491647 -0.03245824 -0.02610014       0.010
  -0.03245824 -0.06491647 -0.02610015       0.010
   0.09737471  0.03245824  0.02610015       0.010
  -0.03245823  0.09737471  0.02610014       0.010
  -0.09737470 -0.03245824  0.02610014       0.010
   0.03245824 -0.09737471  0.02610015       0.010
  -0.09737471  0.03245824 -0.02610015       0.010
   0.03245823  0.09737471 -0.02610014       0.010
   0.09737470 -0.03245824 -0.02610014       0.010
  -0.03245824 -0.09737471 -0.02610015       0.010
   0.12983294  0.03245824  0.02610015       0.010
  -0.03245823  0.12983294  0.02610014       0.010
   0.12983294 -0.03245824  0.02610015       0.010
   0.03245824  0.12983294  0.02610015       0.010
   0.06491647  0.06491647  0.02610015       0.010
  -0.06491647  0.06491647  0.02610014       0.010
  -0.06491647 -0.06491647  0.02610014       0.010
   0.06491647 -0.06491647  0.02610015       0.010
   0.09737471  0.06491647  0.02610015       0.010
  -0.06491647  0.09737471  0.02610014       0.010
  -0.09737470 -0.06491647  0.02610014       0.010
   0.06491647 -0.09737471  0.02610015       0.010
  -0.09737471  0.06491647 -0.02610015       0.010
   0.06491647  0.09737471 -0.02610014       0.010
   0.09737470 -0.06491647 -0.02610014       0.010
  -0.06491647 -0.09737471 -0.02610015       0.010
   0.12983294  0.06491647  0.02610015       0.010
  -0.06491647  0.12983294  0.02610014       0.010
   0.12983294 -0.06491647  0.02610015       0.010
   0.06491647  0.12983294  0.02610015       0.010
   0.09737471  0.09737471  0.02610015       0.010
  -0.09737470  0.09737471  0.02610014       0.010
  -0.09737470 -0.09737471  0.02610014       0.010
   0.09737471 -0.09737471  0.02610015       0.010
   0.12983294  0.09737471  0.02610015       0.010
  -0.09737470  0.12983294  0.02610014       0.010
   0.12983294 -0.09737471  0.02610015       0.010
   0.09737471  0.12983294  0.02610015       0.010
   0.12983294  0.12983294  0.02610015       0.010
 
 k-points in reciprocal lattice and weights: Kpoints                                 
   0.00000000  0.00000000  0.00000000       0.005
   0.12500000  0.00000000  0.00000000       0.010
   0.00000000  0.12500000  0.00000000       0.010
   0.25000000  0.00000000  0.00000000       0.010
   0.00000000  0.25000000  0.00000000       0.010
   0.37500000 -0.00000000  0.00000000       0.010
   0.00000000  0.37500000 -0.00000000       0.010
   0.50000000  0.00000000  0.00000000       0.005
   0.00000000  0.50000000 -0.00000000       0.005
   0.12500000  0.12500000  0.00000000       0.010
  -0.12500000  0.12500000  0.00000000       0.010
   0.25000000  0.12500000  0.00000000       0.010
  -0.12500000  0.25000000  0.00000000       0.010
  -0.25000000  0.12500000  0.00000000       0.010
   0.12500000  0.25000000  0.00000000       0.010
   0.37500000  0.12500000  0.00000000       0.010
  -0.12500000  0.37500000 -0.00000000       0.010
  -0.37500000  0.12500000  0.00000000       0.010
   0.12500000  0.37500000 -0.00000000       0.010
   0.50000000  0.12500000  0.00000000       0.010
  -0.12500000  0.50000000 -0.00000000       0.010
   0.25000000  0.25000000  0.00000000       0.010
  -0.25000000  0.25000000  0.00000000       0.010
   0.37500000  0.25000000  0.00000000       0.010
  -0.25000000  0.37500000 -0.00000000       0.010
  -0.37500000  0.25000000  0.00000000       0.010
   0.25000000  0.37500000 -0.00000000       0.010
   0.50000000  0.25000000  0.00000000       0.010
  -0.25000000  0.50000000 -0.00000000       0.010
   0.37500000  0.37500000 -0.00000000       0.010
  -0.37500000  0.37500000 -0.00000000       0.010
   0.50000000  0.37500000 -0.00000000       0.010
  -0.37500000  0.50000000 -0.00000000       0.010
   0.50000000  0.50000000 -0.00000000       0.005
   0.00000000  0.00000000  0.33333333       0.010
   0.12500000 -0.00000000  0.33333333       0.010
  -0.00000000  0.12500000  0.33333333       0.010
  -0.12500000 -0.00000000  0.33333333       0.010
  -0.00000000 -0.12500000  0.33333333       0.010
   0.25000000  0.00000000  0.33333333       0.010
  -0.00000000  0.25000000  0.33333333       0.010
  -0.25000000  0.00000000  0.33333333       0.010
   0.00000000 -0.25000000  0.33333333       0.010
   0.37500000 -0.00000000  0.33333333       0.010
   0.00000000  0.37500000  0.33333333       0.010
  -0.37500000  0.00000000  0.33333333       0.010
   0.00000000 -0.37500000  0.33333333       0.010
   0.50000000  0.00000000  0.33333333       0.010
  -0.00000000  0.50000000  0.33333333       0.010
   0.12500000  0.12500000  0.33333333       0.010
  -0.12500000  0.12500000  0.33333333       0.010
  -0.12500000 -0.12500000  0.33333333       0.010
   0.12500000 -0.12500000  0.33333333       0.010
   0.25000000  0.12500000  0.33333333       0.010
  -0.12500000  0.25000000  0.33333333       0.010
  -0.25000000 -0.12500000  0.33333333       0.010
   0.12500000 -0.25000000  0.33333333       0.010
  -0.25000000  0.12500000 -0.33333333       0.010
   0.12500000  0.25000000 -0.33333333       0.010
   0.25000000 -0.12500000 -0.33333333       0.010
  -0.12500000 -0.25000000 -0.33333333       0.010
   0.37500000  0.12500000  0.33333333       0.010
  -0.12500000  0.37500000  0.33333333       0.010
  -0.37500000 -0.12500000  0.33333333       0.010
   0.12500000 -0.37500000  0.33333333       0.010
  -0.37500000  0.12500000 -0.33333333       0.010
   0.12500000  0.37500000 -0.33333333       0.010
   0.37500000 -0.12500000 -0.33333333       0.010
  -0.12500000 -0.37500000 -0.33333333       0.010
   0.50000000  0.12500000  0.33333333       0.010
  -0.12500000  0.50000000  0.33333333       0.010
   0.50000000 -0.12500000  0.33333333       0.010
   0.12500000  0.50000000  0.33333333       0.010
   0.25000000  0.25000000  0.33333333       0.010
  -0.25000000  0.25000000  0.33333333       0.010
  -0.25000000 -0.25000000  0.33333333       0.010
   0.25000000 -0.25000000  0.33333333       0.010
   0.37500000  0.25000000  0.33333333       0.010
  -0.25000000  0.37500000  0.33333333       0.010
  -0.37500000 -0.25000000  0.33333333       0.010
   0.25000000 -0.37500000  0.33333333       0.010
  -0.37500000  0.25000000 -0.33333333       0.010
   0.25000000  0.37500000 -0.33333333       0.010
   0.37500000 -0.25000000 -0.33333333       0.010
  -0.25000000 -0.37500000 -0.33333333       0.010
   0.50000000  0.25000000  0.33333333       0.010
  -0.25000000  0.50000000  0.33333333       0.010
   0.50000000 -0.25000000  0.33333333       0.010
   0.25000000  0.50000000  0.33333333       0.010
   0.37500000  0.37500000  0.33333333       0.010
  -0.37500000  0.37500000  0.33333333       0.010
  -0.37500000 -0.37500000  0.33333333       0.010
   0.37500000 -0.37500000  0.33333333       0.010
   0.50000000  0.37500000  0.33333333       0.010
  -0.37500000  0.50000000  0.33333333       0.010
   0.50000000 -0.37500000  0.33333333       0.010
   0.37500000  0.50000000  0.33333333       0.010
   0.50000000  0.50000000  0.33333333       0.010
 
 position of ions in fractional coordinates (direct lattice) 
   0.00000002  0.99999997  0.34186211
   0.00000007  0.00000000  0.65813789
   0.50000005  0.50000001  0.84186210
   0.50000007  0.49999995  0.15813790
   0.99999999  0.00000001  0.00000025
   0.49999998  0.50000002  0.49999974
   0.00074963  0.00000001  0.14341662
   0.99999995  0.00000001  0.85733282
   0.49999997  0.50000000  0.64266713
   0.49999994  0.50000002  0.35733309
 
 position of ions in cartesian coordinates  (Angst):
  -0.00000005  3.85110259  4.36603091
   0.00000005 -0.00000001  8.40529051
   1.92555132  1.92555137 10.75169131
   1.92555164  1.92555117  2.01962986
   3.85110278  0.00000006  0.00000315
   1.92555118  1.92555141  6.38565737
   0.00288686  0.00000002  1.83161976
   3.85110234  0.00000004 10.94927291
   1.92555107  1.92555136  8.20770842
   1.92555105  1.92555142  4.56361564
 


--------------------------------------------------------------------------------------------------------


 k-point   1 :   0.0000 0.0000 0.0000  plane waves:    5047
 k-point   2 :   0.1250 0.0000 0.0000  plane waves:    5075
 k-point   3 :   0.0000 0.1250 0.0000  plane waves:    5075
 k-point   4 :   0.2500 0.0000 0.0000  plane waves:    5094
 k-point   5 :   0.0000 0.2500 0.0000  plane waves:    5094
 k-point   6 :   0.3750-0.0000 0.0000  plane waves:    5118
 k-point   7 :   0.0000 0.3750-0.0000  plane waves:    5118
 k-point   8 :   0.5000 0.0000 0.0000  plane waves:    5078
 k-point   9 :   0.0000 0.5000-0.0000  plane waves:    5078
 k-point  10 :   0.1250 0.1250 0.0000  plane waves:    5074
 k-point  11 :  -0.1250 0.1250 0.0000  plane waves:    5074
 k-point  12 :   0.2500 0.1250 0.0000  plane waves:    5086
 k-point  13 :  -0.1250 0.2500 0.0000  plane waves:    5086
 k-point  14 :  -0.2500 0.1250 0.0000  plane waves:    5086
 k-point  15 :   0.1250 0.2500 0.0000  plane waves:    5086
 k-point  16 :   0.3750 0.1250 0.0000  plane waves:    5116
 k-point  17 :  -0.1250 0.3750-0.0000  plane waves:    5116
 k-point  18 :  -0.3750 0.1250 0.0000  plane waves:    5116
 k-point  19 :   0.1250 0.3750-0.0000  plane waves:    5116
 k-point  20 :   0.5000 0.1250 0.0000  plane waves:    5118
 k-point  21 :  -0.1250 0.5000-0.0000  plane waves:    5118
 k-point  22 :   0.2500 0.2500 0.0000  plane waves:    5110
 k-point  23 :  -0.2500 0.2500 0.0000  plane waves:    5110
 k-point  24 :   0.3750 0.2500 0.0000  plane waves:    5096
 k-point  25 :  -0.2500 0.3750-0.0000  plane waves:    5096
 k-point  26 :  -0.3750 0.2500 0.0000  plane waves:    5096
 k-point  27 :   0.2500 0.3750-0.0000  plane waves:    5096
 k-point  28 :   0.5000 0.2500 0.0000  plane waves:    5114
 k-point  29 :  -0.2500 0.5000-0.0000  plane waves:    5114
 k-point  30 :   0.3750 0.3750-0.0000  plane waves:    5108
 k-point  31 :  -0.3750 0.3750-0.0000  plane waves:    5108
 k-point  32 :   0.5000 0.3750-0.0000  plane waves:    5112
 k-point  33 :  -0.3750 0.5000-0.0000  plane waves:    5112
 k-point  34 :   0.5000 0.5000-0.0000  plane waves:    5108
 k-point  35 :   0.0000 0.0000 0.3333  plane waves:    5076
 k-point  36 :   0.1250-0.0000 0.3333  plane waves:    5077
 k-point  37 :  -0.0000 0.1250 0.3333  plane waves:    5077
 k-point  38 :  -0.1250-0.0000 0.3333  plane waves:    5077
 k-point  39 :  -0.0000-0.1250 0.3333  plane waves:    5077
 k-point  40 :   0.2500 0.0000 0.3333  plane waves:    5108
 k-point  41 :  -0.0000 0.2500 0.3333  plane waves:    5108
 k-point  42 :  -0.2500 0.0000 0.3333  plane waves:    5108
 k-point  43 :   0.0000-0.2500 0.3333  plane waves:    5108
 k-point  44 :   0.3750-0.0000 0.3333  plane waves:    5113
 k-point  45 :   0.0000 0.3750 0.3333  plane waves:    5113
 k-point  46 :  -0.3750 0.0000 0.3333  plane waves:    5113
 k-point  47 :   0.0000-0.3750 0.3333  plane waves:    5113
 k-point  48 :   0.5000 0.0000 0.3333  plane waves:    5106
 k-point  49 :  -0.0000 0.5000 0.3333  plane waves:    5106
 k-point  50 :   0.1250 0.1250 0.3333  plane waves:    5078
 k-point  51 :  -0.1250 0.1250 0.3333  plane waves:    5078
 k-point  52 :  -0.1250-0.1250 0.3333  plane waves:    5078
 k-point  53 :   0.1250-0.1250 0.3333  plane waves:    5078
 k-point  54 :   0.2500 0.1250 0.3333  plane waves:    5094
 k-point  55 :  -0.1250 0.2500 0.3333  plane waves:    5094
 k-point  56 :  -0.2500-0.1250 0.3333  plane waves:    5094
 k-point  57 :   0.1250-0.2500 0.3333  plane waves:    5094
 k-point  58 :  -0.2500 0.1250-0.3333  plane waves:    5094
 k-point  59 :   0.1250 0.2500-0.3333  plane waves:    5094
 k-point  60 :   0.2500-0.1250-0.3333  plane waves:    5094
 k-point  61 :  -0.1250-0.2500-0.3333  plane waves:    5094
 k-point  62 :   0.3750 0.1250 0.3333  plane waves:    5108
 k-point  63 :  -0.1250 0.3750 0.3333  plane waves:    5108
 k-point  64 :  -0.3750-0.1250 0.3333  plane waves:    5108
 k-point  65 :   0.1250-0.3750 0.3333  plane waves:    5108
 k-point  66 :  -0.3750 0.1250-0.3333  plane waves:    5108
 k-point  67 :   0.1250 0.3750-0.3333  plane waves:    5108
 k-point  68 :   0.3750-0.1250-0.3333  plane waves:    5108
 k-point  69 :  -0.1250-0.3750-0.3333  plane waves:    5108
 k-point  70 :   0.5000 0.1250 0.3333  plane waves:    5112
 k-point  71 :  -0.1250 0.5000 0.3333  plane waves:    5112
 k-point  72 :   0.5000-0.1250 0.3333  plane waves:    5112
 k-point  73 :   0.1250 0.5000 0.3333  plane waves:    5112
 k-point  74 :   0.2500 0.2500 0.3333  plane waves:    5099
 k-point  75 :  -0.2500 0.2500 0.3333  plane waves:    5099
 k-point  76 :  -0.2500-0.2500 0.3333  plane waves:    5099
 k-point  77 :   0.2500-0.2500 0.3333  plane waves:    5099
 k-point  78 :   0.3750 0.2500 0.3333  plane waves:    5095
 k-point  79 :  -0.2500 0.3750 0.3333  plane waves:    5095
 k-point  80 :  -0.3750-0.2500 0.3333  plane waves:    5095
 k-point  81 :   0.2500-0.3750 0.3333  plane waves:    5095
 k-point  82 :  -0.3750 0.2500-0.3333  plane waves:    5095
 k-point  83 :   0.2500 0.3750-0.3333  plane waves:    5095
 k-point  84 :   0.3750-0.2500-0.3333  plane waves:    5095
 k-point  85 :  -0.2500-0.3750-0.3333  plane waves:    5095
 k-point  86 :   0.5000 0.2500 0.3333  plane waves:    5090
 k-point  87 :  -0.2500 0.5000 0.3333  plane waves:    5090
 k-point  88 :   0.5000-0.2500 0.3333  plane waves:    5090
 k-point  89 :   0.2500 0.5000 0.3333  plane waves:    5090
 k-point  90 :   0.3750 0.3750 0.3333  plane waves:    5110
 k-point  91 :  -0.3750 0.3750 0.3333  plane waves:    5110
 k-point  92 :  -0.3750-0.3750 0.3333  plane waves:    5110
 k-point  93 :   0.3750-0.3750 0.3333  plane waves:    5110
 k-point  94 :   0.5000 0.3750 0.3333  plane waves:    5114
 k-point  95 :  -0.3750 0.5000 0.3333  plane waves:    5114
 k-point  96 :   0.5000-0.3750 0.3333  plane waves:    5114
 k-point  97 :   0.3750 0.5000 0.3333  plane waves:    5114
 k-point  98 :   0.5000 0.5000 0.3333  plane waves:    5136

 maximum and minimum number of plane-waves per node :      1303     1249

 maximum number of plane-waves:      5136
 maximum index in each direction: 
   IXMAX=    7   IYMAX=    7   IZMAX=   24
   IXMIN=   -7   IYMIN=   -7   IZMIN=  -24


 parallel 3D FFT for wavefunctions:
    minimum data exchange during FFTs selected (reduces bandwidth)
 parallel 3D FFT for charge:
    minimum data exchange during FFTs selected (reduces bandwidth)


 total amount of memory used by VASP MPI-rank0   107651. kBytes
=======================================================================

   base      :      30000. kBytes
   nonl-proj :      55074. kBytes
   fftplans  :       1092. kBytes
   grid      :       4533. kBytes
   one-center:         93. kBytes
   wavefun   :      16859. kBytes
 
     INWAV:  cpu time    0.0000: real time    0.0000
 Broyden mixing: mesh for mixing (old mesh)
   NGX = 15   NGY = 15   NGZ = 47
  (NGX  = 60   NGY  = 60   NGZ  =192)
  gives a total of  10575 points

 initial charge density was supplied:
 charge density of overlapping atoms calculated
 number of electron      84.0000000 magnetization       0.6000000
 keeping initial charge density in first step


--------------------------------------------------------------------------------------------------------


 Maximum index for augmentation-charges         1050 (set IRDMAX)


--------------------------------------------------------------------------------------------------------


 First call to EWALD:  gamma=   0.309
 Maximum number of real-space cells 4x 4x 2
 Maximum number of reciprocal cells 2x 2x 6

    FEWALD:  cpu time    0.0019: real time    0.0022


--------------------------------------- Iteration      1(   1)  ---------------------------------------


    POTLOK:  cpu time    0.0423: real time    0.0612
    SETDIJ:  cpu time    0.9040: real time    0.9047
     EDDAV:  cpu time    9.5909: real time    9.5958
       DOS:  cpu time    0.0040: real time    0.0042
    --------------------------------------------
      LOOP:  cpu time   10.5412: real time   10.5658

 eigenvalue-minimisations  : 25088
 total energy-change (2. order) : 0.5390245E+03  (-0.4084763E+04)
 number of electron      84.0000000 magnetization       0.6000000
 augmentation part       84.0000000 magnetization       0.6000000

 Free energy of the ion-electron system (eV)
  ---------------------------------------------------
  alpha Z        PSCENC =       487.77386565
  Ewald energy   TEWEN  =     -5606.90586141
  -Hartree energ DENC   =     -2137.69703848
  -exchange      EXHF   =         0.00000000
  -V(xc)+E(xc)   XCENC  =       389.54447243
  PAW double counting   =      6184.04713378    -6608.31218866
  entropy T*S    EENTRO =        -0.00309980
  eigenvalues    EBANDS =       -97.35378204
  atomic energy  EATOM  =      7927.93097991
  Solvation  Ediel_sol  =         0.00000000
  ---------------------------------------------------
  free energy    TOTEN  =       539.02448137 eV

  energy without entropy =      539.02758117  energy(sigma->0) =      539.02603127


--------------------------------------------------------------------------------------------------------




--------------------------------------- Iteration      1(   2)  ---------------------------------------


     EDDAV:  cpu time    9.8175: real time    9.8268
       DOS:  cpu time    0.0024: real time    0.0024
    --------------------------------------------
      LOOP:  cpu time    9.8199: real time    9.8291

 eigenvalue-minimisations  : 26096
 total energy-change (2. order) :-0.6575712E+03  (-0.6165517E+03)
 number of electron      84.0000000 magnetization       0.6000000
 augmentation part       84.0000000 magnetization       0.6000000

 Free energy of the ion-electron system (eV)
  ---------------------------------------------------
  alpha Z        PSCENC =       487.77386565
  Ewald energy   TEWEN  =     -5606.90586141
  -Hartree energ DENC   =     -2137.69703848
  -exchange      EXHF   =         0.00000000
  -V(xc)+E(xc)   XCENC  =       389.54447243
  PAW double counting   =      6184.04713378    -6608.31218866
  entropy T*S    EENTRO =        -0.00000000
  eigenvalues    EBANDS =      -754.92808948
  atomic energy  EATOM  =      7927.93097991
  Solvation  Ediel_sol  =         0.00000000
  ---------------------------------------------------
  free energy    TOTEN  =      -118.54672626 eV

  energy without entropy =     -118.54672626  energy(sigma->0) =     -118.54672626


--------------------------------------------------------------------------------------------------------




--------------------------------------- Iteration      1(   3)  ---------------------------------------


     EDDAV:  cpu time   12.8955: real time   12.8990
       DOS:  cpu time    0.0020: real time    0.0020
    --------------------------------------------
      LOOP:  cpu time   12.8974: real time   12.9009

 eigenvalue-minimisations  : 37040
 total energy-change (2. order) :-0.7734216E+02  (-0.7620431E+02)
 number of electron      84.0000000 magnetization       0.6000000
 augmentation part       84.0000000 magnetization       0.6000000

 Free energy of the ion-electron system (eV)
  ---------------------------------------------------
  alpha Z        PSCENC =       487.77386565
  Ewald energy   TEWEN  =     -5606.90586141
  -Hartree energ DENC   =     -2137.69703848
  -exchange      EXHF   =         0.00000000
  -V(xc)+E(xc)   XCENC  =       389.54447243
  PAW double counting   =      6184.04713378    -6608.31218866
  entropy T*S    EENTRO =        -0.00000000
  eigenvalues    EBANDS =      -832.27024492
  atomic energy  EATOM  =      7927.93097991
  Solvation  Ediel_sol  =         0.00000000
  ---------------------------------------------------
  free energy    TOTEN  =      -195.88888171 eV

  energy without entropy =     -195.88888171  energy(sigma->0) =     -195.88888171


--------------------------------------------------------------------------------------------------------




--------------------------------------- Iteration      1(   4)  ---------------------------------------


     EDDAV:  cpu time   13.9035: real time   13.9523
       DOS:  cpu time    0.0022: real time    0.0022
    --------------------------------------------
      LOOP:  cpu time   13.9058: real time   13.9546

 eigenvalue-minimisations  : 41136
 total energy-change (2. order) :-0.3943471E+01  (-0.3897806E+01)
 number of electron      84.0000000 magnetization       0.6000000
 augmentation part       84.0000000 magnetization       0.6000000

 Free energy of the ion-electron system (eV)
  ---------------------------------------------------
  alpha Z        PSCENC =       487.77386565
  Ewald energy   TEWEN  =     -5606.90586141
  -Hartree energ DENC   =     -2137.69703848
  -exchange      EXHF   =         0.00000000
  -V(xc)+E(xc)   XCENC  =       389.54447243
  PAW double counting   =      6184.04713378    -6608.31218866
  entropy T*S    EENTRO =        -0.00000000
  eigenvalues    EBANDS =      -836.21371624
  atomic energy  EATOM  =      7927.93097991
  Solvation  Ediel_sol  =         0.00000000
  ---------------------------------------------------
  free energy    TOTEN  =      -199.83235302 eV

  energy without entropy =     -199.83235302  energy(sigma->0) =     -199.83235302


--------------------------------------------------------------------------------------------------------




--------------------------------------- Iteration      1(   5)  ---------------------------------------


     EDDAV:  cpu time   11.7721: real time   11.7751
       DOS:  cpu time    0.0016: real time    0.0016
    CHARGE:  cpu time    1.0033: real time    1.0036
    MIXING:  cpu time    0.0026: real time    0.0029
    --------------------------------------------
      LOOP:  cpu time   12.7796: real time   12.7832

 eigenvalue-minimisations  : 33552
 total energy-change (2. order) :-0.6677471E-01  (-0.6676371E-01)
 number of electron      83.9999985 magnetization       0.4129216
 augmentation part       17.7293820 magnetization       0.4399513

 Broyden mixing:
  rms(total) = 0.35392E+01    rms(broyden)= 0.35391E+01
  rms(prec ) = 0.39035E+01
  weight for this iteration     100.00

 Free energy of the ion-electron system (eV)
  ---------------------------------------------------
  alpha Z        PSCENC =       487.77386565
  Ewald energy   TEWEN  =     -5606.90586141
  -Hartree energ DENC   =     -2137.69703848
  -exchange      EXHF   =         0.00000000
  -V(xc)+E(xc)   XCENC  =       389.54447243
  PAW double counting   =      6184.04713378    -6608.31218866
  entropy T*S    EENTRO =        -0.00000000
  eigenvalues    EBANDS =      -836.28049094
  atomic energy  EATOM  =      7927.93097991
  Solvation  Ediel_sol  =         0.00000000
  ---------------------------------------------------
  free energy    TOTEN  =      -199.89912773 eV

  energy without entropy =     -199.89912773  energy(sigma->0) =     -199.89912773


--------------------------------------------------------------------------------------------------------




--------------------------------------- Iteration      1(   6)  ---------------------------------------


    POTLOK:  cpu time    0.0387: real time    0.0387
    SETDIJ:  cpu time    0.8955: real time    0.8956
     EDDAV:  cpu time   14.0501: real time   14.0537
       DOS:  cpu time    0.0019: real time    0.0019
    CHARGE:  cpu time    1.0049: real time    1.0052
    MIXING:  cpu time    0.0013: real time    0.0013
    --------------------------------------------
      LOOP:  cpu time   15.9925: real time   15.9963

 eigenvalue-minimisations  : 42096
 total energy-change (2. order) : 0.4066591E+02  (-0.4443301E+01)
 number of electron      83.9999984 magnetization       0.2887018
 augmentation part       19.0307637 magnetization       0.2795860

 Broyden mixing:
  rms(total) = 0.29105E+01    rms(broyden)= 0.29105E+01
  rms(prec ) = 0.29272E+01
  weight for this iteration     100.00

 eigenvalues of (default mixing * dielectric matrix)
  average eigenvalue GAMMA=   0.9406
  0.9406

 Free energy of the ion-electron system (eV)
  ---------------------------------------------------
  alpha Z        PSCENC =       487.77386565
  Ewald energy   TEWEN  =     -5606.90586141
  -Hartree energ DENC   =     -2152.46449154
  -exchange      EXHF   =         0.00000000
  -V(xc)+E(xc)   XCENC  =       408.53122754
  PAW double counting   =      7790.54664372    -8207.08622411
  entropy T*S    EENTRO =        -0.00000000
  eigenvalues    EBANDS =      -807.55935549
  atomic energy  EATOM  =      7927.93097991
  Solvation  Ediel_sol  =         0.00000000
  ---------------------------------------------------
  free energy    TOTEN  =      -159.23321573 eV

  energy without entropy =     -159.23321573  energy(sigma->0) =     -159.23321573


--------------------------------------------------------------------------------------------------------




--------------------------------------- Iteration      1(   7)  ---------------------------------------


    POTLOK:  cpu time    0.0370: real time    0.0652
    SETDIJ:  cpu time    0.8963: real time    0.8965
     EDDAV:  cpu time   11.7548: real time   11.7574
       DOS:  cpu time    0.0017: real time    0.0017
    CHARGE:  cpu time    1.0021: real time    1.0023
    MIXING:  cpu time    0.0005: real time    0.0005
    --------------------------------------------
      LOOP:  cpu time   13.6924: real time   13.7237

 eigenvalue-minimisations  : 33392
 total energy-change (2. order) :-0.1587581E+01  (-0.1599657E+01)
 number of electron      83.9999984 magnetization       0.1198357
 augmentation part       18.6729854 magnetization       0.1079559

 Broyden mixing:
  rms(total) = 0.19912E+01    rms(broyden)= 0.19912E+01
  rms(prec ) = 0.20117E+01
  weight for this iteration     100.00

 eigenvalues of (default mixing * dielectric matrix)
  average eigenvalue GAMMA=   1.4824
  1.1266  1.8382

 Free energy of the ion-electron system (eV)
  ---------------------------------------------------
  alpha Z        PSCENC =       487.77386565
  Ewald energy   TEWEN  =     -5606.90586141
  -Hartree energ DENC   =     -2164.02571397
  -exchange      EXHF   =         0.00000000
  -V(xc)+E(xc)   XCENC  =       407.25474990
  PAW double counting   =      8960.97545881    -9397.41647522
  entropy T*S    EENTRO =        -0.00000000
  eigenvalues    EBANDS =      -776.40780074
  atomic energy  EATOM  =      7927.93097991
  Solvation  Ediel_sol  =         0.00000000
  ---------------------------------------------------
  free energy    TOTEN  =      -160.82079706 eV

  energy without entropy =     -160.82079706  energy(sigma->0) =     -160.82079706


--------------------------------------------------------------------------------------------------------




--------------------------------------- Iteration      1(   8)  ---------------------------------------


    POTLOK:  cpu time    0.0377: real time    0.0377
    SETDIJ:  cpu time    0.8927: real time    0.8928
     EDDAV:  cpu time   11.7445: real time   11.7467
       DOS:  cpu time    0.0019: real time    0.0019
    CHARGE:  cpu time    0.9990: real time    0.9992
    MIXING:  cpu time    0.0006: real time    0.0006
    --------------------------------------------
      LOOP:  cpu time   13.6763: real time   13.6789

 eigenvalue-minimisations  : 33360
 total energy-change (2. order) :-0.2690956E+00  (-0.4458738E+00)
 number of electron      83.9999984 magnetization       0.0661115
 augmentation part       18.9732787 magnetization       0.0618590

 Broyden mixing:
  rms(total) = 0.44962E+00    rms(broyden)= 0.44958E+00
  rms(prec ) = 0.53710E+00
  weight for this iteration     100.00

 eigenvalues of (default mixing * dielectric matrix)
  average eigenvalue GAMMA=   1.3083
  2.2042  0.8604  0.8604

 Free energy of the ion-electron system (eV)
  ---------------------------------------------------
  alpha Z        PSCENC =       487.77386565
  Ewald energy   TEWEN  =     -5606.90586141
  -Hartree energ DENC   =     -2132.49346201
  -exchange      EXHF   =         0.00000000
  -V(xc)+E(xc)   XCENC  =       404.92110474
  PAW double counting   =     10669.92813566   -11113.12259028
  entropy T*S    EENTRO =        -0.00000000
  eigenvalues    EBANDS =      -799.12206490
  atomic energy  EATOM  =      7927.93097991
  Solvation  Ediel_sol  =         0.00000000
  ---------------------------------------------------
  free energy    TOTEN  =      -161.08989264 eV

  energy without entropy =     -161.08989264  energy(sigma->0) =     -161.08989264


--------------------------------------------------------------------------------------------------------




--------------------------------------- Iteration      1(   9)  ---------------------------------------


    POTLOK:  cpu time    0.0374: real time    0.0487
    SETDIJ:  cpu time    0.8950: real time    0.8951
     EDDAV:  cpu time   11.7315: real time   11.7335
       DOS:  cpu time    0.0019: real time    0.0019
    CHARGE:  cpu time    0.9994: real time    0.9996
    MIXING:  cpu time    0.0006: real time    0.0006
    --------------------------------------------
      LOOP:  cpu time   13.6658: real time   13.6794

 eigenvalue-minimisations  : 33280
 total energy-change (2. order) : 0.3581810E+00  (-0.1331028E+00)
 number of electron      83.9999984 magnetization       0.0469347
 augmentation part       18.8117358 magnetization       0.0399207

 Broyden mixing:
  rms(total) = 0.14801E+00    rms(broyden)= 0.14799E+00
  rms(prec ) = 0.15746E+00
  weight for this iteration     100.00

 eigenvalues of (default mixing * dielectric matrix)
  average eigenvalue GAMMA=   1.1448
  2.2988  0.8667  0.8667  0.5470

 Free energy of the ion-electron system (eV)
  ---------------------------------------------------
  alpha Z        PSCENC =       487.77386565
  Ewald energy   TEWEN  =     -5606.90586141
  -Hartree energ DENC   =     -2145.59950889
  -exchange      EXHF   =         0.00000000
  -V(xc)+E(xc)   XCENC  =       406.44179610
  PAW double counting   =     10918.07563668   -11367.26133754
  entropy T*S    EENTRO =        -0.00000000
  eigenvalues    EBANDS =      -781.18728212
  atomic energy  EATOM  =      7927.93097991
  Solvation  Ediel_sol  =         0.00000000
  ---------------------------------------------------
  free energy    TOTEN  =      -160.73171163 eV

  energy without entropy =     -160.73171163  energy(sigma->0) =     -160.73171163


--------------------------------------------------------------------------------------------------------




--------------------------------------- Iteration      1(  10)  ---------------------------------------


    POTLOK:  cpu time    0.0380: real time    0.0829
    SETDIJ:  cpu time    0.8964: real time    0.8969
     EDDAV:  cpu time   11.1713: real time   11.1743
       DOS:  cpu time    0.0016: real time    0.0016
    CHARGE:  cpu time    1.0010: real time    1.0013
    MIXING:  cpu time    0.0005: real time    0.0005
    --------------------------------------------
      LOOP:  cpu time   13.1089: real time   13.1575

 eigenvalue-minimisations  : 31232
 total energy-change (2. order) : 0.4289009E-02  (-0.1257553E-01)
 number of electron      83.9999984 magnetization       0.0298173
 augmentation part       18.8118697 magnetization       0.0240679

 Broyden mixing:
  rms(total) = 0.94643E-01    rms(broyden)= 0.94637E-01
  rms(prec ) = 0.96899E-01
  weight for this iteration     100.00

 eigenvalues of (default mixing * dielectric matrix)
  average eigenvalue GAMMA=   1.1274
  2.4505  0.9878  0.8442  0.8442  0.5106

 Free energy of the ion-electron system (eV)
  ---------------------------------------------------
  alpha Z        PSCENC =       487.77386565
  Ewald energy   TEWEN  =     -5606.90586141
  -Hartree energ DENC   =     -2145.93253105
  -exchange      EXHF   =         0.00000000
  -V(xc)+E(xc)   XCENC  =       406.13453093
  PAW double counting   =     10967.49837146   -11417.15457274
  entropy T*S    EENTRO =        -0.00000000
  eigenvalues    EBANDS =      -780.07220537
  atomic energy  EATOM  =      7927.93097991
  Solvation  Ediel_sol  =         0.00000000
  ---------------------------------------------------
  free energy    TOTEN  =      -160.72742262 eV

  energy without entropy =     -160.72742262  energy(sigma->0) =     -160.72742262


--------------------------------------------------------------------------------------------------------




--------------------------------------- Iteration      1(  11)  ---------------------------------------


    POTLOK:  cpu time    0.0357: real time    0.0358
    SETDIJ:  cpu time    0.8952: real time    0.8953
     EDDAV:  cpu time   11.9499: real time   11.9532
       DOS:  cpu time    0.0021: real time    0.0021
    CHARGE:  cpu time    1.0063: real time    1.0065
    MIXING:  cpu time    0.0006: real time    0.0006
    --------------------------------------------
      LOOP:  cpu time   13.8897: real time   13.8934

 eigenvalue-minimisations  : 34448
 total energy-change (2. order) :-0.2191992E-02  (-0.7984215E-03)
 number of electron      83.9999984 magnetization       0.0120027
 augmentation part       18.8171951 magnetization       0.0083595

 Broyden mixing:
  rms(total) = 0.50282E-01    rms(broyden)= 0.50281E-01
  rms(prec ) = 0.51524E-01
  weight for this iteration     100.00

 eigenvalues of (default mixing * dielectric matrix)
  average eigenvalue GAMMA=   1.2104
  2.5984  1.5964  0.9125  0.9125  0.7705  0.4721

 Free energy of the ion-electron system (eV)
  ---------------------------------------------------
  alpha Z        PSCENC =       487.77386565
  Ewald energy   TEWEN  =     -5606.90586141
  -Hartree energ DENC   =     -2145.42544091
  -exchange      EXHF   =         0.00000000
  -V(xc)+E(xc)   XCENC  =       406.08482641
  PAW double counting   =     10994.14492134   -11444.10284276
  entropy T*S    EENTRO =        -0.00000000
  eigenvalues    EBANDS =      -780.23006285
  atomic energy  EATOM  =      7927.93097991
  Solvation  Ediel_sol  =         0.00000000
  ---------------------------------------------------
  free energy    TOTEN  =      -160.72961461 eV

  energy without entropy =     -160.72961461  energy(sigma->0) =     -160.72961461


--------------------------------------------------------------------------------------------------------




--------------------------------------- Iteration      1(  12)  ---------------------------------------


    POTLOK:  cpu time    0.0384: real time    0.0385
    SETDIJ:  cpu time    0.9417: real time    0.9418
     EDDAV:  cpu time   11.8536: real time   11.8570
       DOS:  cpu time    0.0016: real time    0.0016
    CHARGE:  cpu time    0.9994: real time    0.9998
    MIXING:  cpu time    0.0005: real time    0.0005
    --------------------------------------------
      LOOP:  cpu time   13.8352: real time   13.8392

 eigenvalue-minimisations  : 31536
 total energy-change (2. order) :-0.1481952E-02  (-0.3391327E-03)
 number of electron      83.9999984 magnetization       0.0048654
 augmentation part       18.8210065 magnetization       0.0036336

 Broyden mixing:
  rms(total) = 0.22506E-01    rms(broyden)= 0.22506E-01
  rms(prec ) = 0.23473E-01
  weight for this iteration     100.00

 eigenvalues of (default mixing * dielectric matrix)
  average eigenvalue GAMMA=   1.2441
  2.7100  2.1089  0.8875  0.8875  0.9181  0.7358  0.4607

 Free energy of the ion-electron system (eV)
  ---------------------------------------------------
  alpha Z        PSCENC =       487.77386565
  Ewald energy   TEWEN  =     -5606.90586141
  -Hartree energ DENC   =     -2145.22950992
  -exchange      EXHF   =         0.00000000
  -V(xc)+E(xc)   XCENC  =       406.11797986
  PAW double counting   =     10974.14301136   -11424.32907032
  entropy T*S    EENTRO =        -0.00000000
  eigenvalues    EBANDS =      -780.23249171
  atomic energy  EATOM  =      7927.93097991
  Solvation  Ediel_sol  =         0.00000000
  ---------------------------------------------------
  free energy    TOTEN  =      -160.73109657 eV

  energy without entropy =     -160.73109657  energy(sigma->0) =     -160.73109657


--------------------------------------------------------------------------------------------------------




--------------------------------------- Iteration      1(  13)  ---------------------------------------


    POTLOK:  cpu time    0.0400: real time    0.0673
    SETDIJ:  cpu time    0.8994: real time    0.8996
     EDDAV:  cpu time   10.3426: real time   10.3445
       DOS:  cpu time    0.0018: real time    0.0018
    CHARGE:  cpu time    0.9861: real time    0.9864
    MIXING:  cpu time    0.0006: real time    0.0006
    --------------------------------------------
      LOOP:  cpu time   12.2706: real time   12.3002

 eigenvalue-minimisations  : 30496
 total energy-change (2. order) :-0.3115263E-03  (-0.1127300E-03)
 number of electron      83.9999984 magnetization       0.0027923
 augmentation part       18.8181565 magnetization       0.0022835

 Broyden mixing:
  rms(total) = 0.75563E-02    rms(broyden)= 0.75559E-02
  rms(prec ) = 0.76846E-02
  weight for this iteration     100.00

 eigenvalues of (default mixing * dielectric matrix)
  average eigenvalue GAMMA=   1.2469
  2.6641  2.4377  1.2285  0.8785  0.8785  0.7930  0.6355  0.4596

 Free energy of the ion-electron system (eV)
  ---------------------------------------------------
  alpha Z        PSCENC =       487.77386565
  Ewald energy   TEWEN  =     -5606.90586141
  -Hartree energ DENC   =     -2145.66802058
  -exchange      EXHF   =         0.00000000
  -V(xc)+E(xc)   XCENC  =       406.17596840
  PAW double counting   =     10941.91371006   -11392.09192558
  entropy T*S    EENTRO =        -0.00000000
  eigenvalues    EBANDS =      -779.86012455
  atomic energy  EATOM  =      7927.93097991
  Solvation  Ediel_sol  =         0.00000000
  ---------------------------------------------------
  free energy    TOTEN  =      -160.73140809 eV

  energy without entropy =     -160.73140809  energy(sigma->0) =     -160.73140809


--------------------------------------------------------------------------------------------------------




--------------------------------------- Iteration      1(  14)  ---------------------------------------


    POTLOK:  cpu time    0.0428: real time    0.0476
    SETDIJ:  cpu time    0.8949: real time    0.8960
     EDDAV:  cpu time   10.5061: real time   10.5082
       DOS:  cpu time    0.0017: real time    0.0017
    CHARGE:  cpu time    0.9822: real time    0.9824
    MIXING:  cpu time    0.0007: real time    0.0006
    --------------------------------------------
      LOOP:  cpu time   12.4283: real time   12.4365

 eigenvalue-minimisations  : 31088
[...]
     53       8.6108      0.00000
     54       8.6358      0.00000
     55       9.9725      0.00000
     56       9.9837      0.00000
     57      10.5322      0.00000
     58      10.5367      0.00000
     59      10.7371      0.00000
     60      10.7380      0.00000
     61      10.9385      0.00000
     62      10.9457      0.00000
     63      11.4425      0.00000
     64      11.4500      0.00000

 k-point    98 :       0.5000    0.5000    0.3333
  band No.  band energies     occupation 
      1     -33.0043      1.00000
      2     -32.9931      1.00000
      3     -32.9812      1.00000
      4     -32.9645      1.00000
      5     -14.7121      1.00000
      6     -14.7121      1.00000
      7     -14.7034      1.00000
      8     -14.6936      1.00000
      9     -14.6867      1.00000
     10     -14.6867      1.00000
     11     -14.6091      1.00000
     12     -14.5987      1.00000
     13     -14.3621      1.00000
     14     -14.3621      1.00000
     15     -14.3360      1.00000
     16     -14.3360      1.00000
     17     -11.3550      1.00000
     18     -11.3531      1.00000
     19     -10.6893      1.00000
     20     -10.6810      1.00000
     21      -4.7719      1.00000
     22      -4.7719      1.00000
     23      -4.7571      1.00000
     24      -4.7571      1.00000
     25      -4.6840      1.00000
     26      -4.6622      1.00000
     27      -4.5481      1.00000
     28      -4.5413      1.00000
     29      -4.5256      1.00000
     30      -4.5256      1.00000
     31      -0.5292      1.00000
     32      -0.5096      1.00000
     33       0.4876      1.00000
     34       0.4876      1.00000
     35       0.5677      1.00000
     36       0.5678      1.00000
     37       0.5880      1.00000
     38       0.5999      1.00000
     39       1.7262      1.00000
     40       1.7263      1.00000
     41       1.8089      1.00000
     42       1.8090      1.00000
     43       3.8255      0.00000
     44       3.8255      0.00000
     45       4.5704      0.00000
     46       4.5704      0.00000
     47       6.1692      0.00000
     48       6.1905      0.00000
     49       6.8364      0.00000
     50       6.8364      0.00000
     51       8.0762      0.00000
     52       8.0762      0.00000
     53       8.1342      0.00000
     54       8.1774      0.00000
     55       9.9001      0.00000
     56       9.9120      0.00000
     57      10.5158      0.00000
     58      10.5319      0.00000
     59      10.9353      0.00000
     60      10.9353      0.00000
     61      11.4835      0.00000
     62      11.4966      0.00000
     63      11.5511      0.00000
     64      11.5622      0.00000


--------------------------------------------------------------------------------------------------------


 soft charge-density along one line, spin component           1
         0         1         2         3         4         5         6         7         8         9
 total charge-density along one line
 
 soft charge-density along one line, spin component           2
         0         1         2         3         4         5         6         7         8         9
 total charge-density along one line
 
 pseudopotential strength for first ion, spin component:           1
-10.656  -3.982   0.000   0.004   0.000   0.000   0.003  -0.000
 -3.982  -1.082  -0.000  -0.013   0.000  -0.000  -0.012   0.000
  0.000  -0.000 -15.456  -0.000  -0.000 -15.164  -0.000  -0.000
  0.004  -0.013  -0.000 -15.481  -0.000  -0.000 -15.188  -0.000
  0.000   0.000  -0.000  -0.000 -15.456  -0.000  -0.000 -15.164
  0.000  -0.000 -15.164  -0.000  -0.000 -14.875  -0.000  -0.000
  0.003  -0.012  -0.000 -15.188  -0.000  -0.000 -14.900  -0.000
 -0.000   0.000  -0.000  -0.000 -15.164  -0.000  -0.000 -14.875
 -0.000  -0.000   0.000  -0.000   0.000   0.000  -0.000   0.000
 -0.000   0.000   0.002   0.000  -0.000   0.002   0.000  -0.000
 -0.007  -0.004   0.000  -0.008   0.000   0.000  -0.007   0.000
 -0.000  -0.000  -0.000   0.000   0.002  -0.000   0.000   0.002
 -0.000   0.000   0.000  -0.000  -0.000   0.000  -0.000  -0.000
 -0.000  -0.000   0.000  -0.000   0.000   0.000  -0.000   0.000
 -0.000   0.000   0.003   0.000  -0.000   0.003   0.000  -0.000
 -0.011  -0.007   0.000  -0.012   0.000   0.000  -0.011   0.000
 -0.000  -0.000  -0.000   0.000   0.003  -0.000   0.000   0.003
 -0.000   0.000  -0.000  -0.000  -0.000   0.000  -0.000  -0.000
 pseudopotential strength for first ion, spin component:           2
-10.656  -3.982  -0.000   0.004   0.000  -0.000   0.003  -0.000
 -3.982  -1.082   0.000  -0.013   0.000   0.000  -0.012   0.000
 -0.000   0.000 -15.456   0.000   0.000 -15.164   0.000   0.000
  0.004  -0.013   0.000 -15.481  -0.000   0.000 -15.188  -0.000
  0.000   0.000   0.000  -0.000 -15.456   0.000  -0.000 -15.164
 -0.000   0.000 -15.164   0.000   0.000 -14.875   0.000   0.000
  0.003  -0.012   0.000 -15.188  -0.000   0.000 -14.900  -0.000
 -0.000   0.000   0.000  -0.000 -15.164   0.000  -0.000 -14.875
  0.000   0.000   0.000   0.000  -0.000   0.000   0.000  -0.000
  0.000  -0.000   0.002  -0.000   0.000   0.002  -0.000   0.000
 -0.007  -0.004   0.000  -0.008   0.000  -0.000  -0.007   0.000
 -0.000  -0.000   0.000   0.000   0.002   0.000   0.000   0.002
  0.000  -0.000  -0.000  -0.000  -0.000  -0.000  -0.000  -0.000
  0.000   0.000   0.000   0.000  -0.000   0.000   0.000  -0.000
  0.000  -0.000   0.003  -0.000   0.000   0.003  -0.000   0.000
 -0.011  -0.007   0.000  -0.012   0.000   0.000  -0.011   0.000
 -0.000  -0.000   0.000   0.000   0.003   0.000   0.000   0.003
 -0.000  -0.000  -0.000  -0.000  -0.000  -0.000  -0.000  -0.000
 total augmentation occupancy for first ion, spin component:           1
  2.005   0.015   0.000  -0.174   0.000  -0.000   0.178  -0.000  -0.000   0.000   0.001  -0.000  -0.000   0.000   0.000   0.006
  0.015   0.563   0.000   0.386  -0.000  -0.000  -0.342   0.000   0.000  -0.000  -0.049  -0.001  -0.000  -0.000   0.000   0.018
  0.000   0.000  11.005  -0.000  -0.000  -9.601   0.000   0.000  -0.000  -0.581  -0.000   0.000   0.000   0.000   0.323   0.000
 -0.174   0.386  -0.000   7.200  -0.002   0.000  -6.276   0.002   0.000   0.000   4.213  -0.006  -0.000   0.000  -0.000  -2.274
  0.000  -0.000  -0.000  -0.002  11.005   0.000   0.002  -9.601   0.000   0.000  -0.002  -0.581  -0.001  -0.000  -0.000   0.001
 -0.000  -0.000  -9.601   0.000   0.000  10.247  -0.000  -0.000   0.000   0.521   0.000  -0.000  -0.000  -0.000  -0.286  -0.000
  0.178  -0.342   0.000  -6.276   0.002  -0.000   7.398  -0.002  -0.000  -0.000  -3.950   0.005   0.000   0.000   0.000   2.147
 -0.000   0.000   0.000   0.002  -9.601  -0.000  -0.002  10.247  -0.000  -0.000   0.002   0.521   0.001   0.000   0.000  -0.001
 -0.000   0.000  -0.000   0.000   0.000   0.000  -0.000  -0.000   6.633  -0.000   0.000  -0.000  -0.000  -3.556   0.000  -0.000
  0.000  -0.000  -0.581   0.000   0.000   0.521  -0.000  -0.000  -0.000   2.027  -0.000  -0.000   0.000   0.000  -1.080   0.000
  0.001  -0.049  -0.000   4.213  -0.002   0.000  -3.950   0.002   0.000  -0.000   5.599  -0.005  -0.000  -0.000   0.000  -3.040
 -0.000  -0.001   0.000  -0.006  -0.581  -0.000   0.005   0.521  -0.000  -0.000  -0.005   2.027  -0.001   0.000   0.000   0.003
 -0.000  -0.000   0.000  -0.000  -0.001  -0.000   0.000   0.001  -0.000   0.000  -0.000  -0.001   1.868   0.000  -0.000   0.000
  0.000  -0.000   0.000   0.000  -0.000  -0.000   0.000   0.000  -3.556   0.000  -0.000   0.000   0.000   1.912  -0.000   0.000
  0.000   0.000   0.323  -0.000  -0.000  -0.286   0.000   0.000   0.000  -1.080   0.000   0.000  -0.000  -0.000   0.576  -0.000
  0.006   0.018   0.000  -2.274   0.001  -0.000   2.147  -0.001  -0.000   0.000  -3.040   0.003   0.000   0.000  -0.000   1.655
  0.000   0.000  -0.000   0.003   0.323   0.000  -0.003  -0.286   0.000   0.000   0.003  -1.080   0.000  -0.000  -0.000  -0.002
  0.000   0.000  -0.000   0.000   0.000   0.000  -0.000  -0.000   0.000  -0.000   0.000   0.001  -0.982  -0.000   0.000  -0.000
 total augmentation occupancy for first ion, spin component:           2
  0.000   0.000   0.000  -0.000   0.000  -0.000   0.000  -0.000  -0.000  -0.000   0.000   0.000   0.000   0.000   0.000  -0.000
  0.000   0.000  -0.000  -0.000  -0.000   0.000   0.000   0.000  -0.000   0.000   0.000  -0.000  -0.000   0.000  -0.000  -0.000
  0.000  -0.000  -0.000  -0.000   0.000   0.000   0.000  -0.000   0.000  -0.000  -0.000  -0.000   0.000  -0.000   0.000   0.000
 -0.000  -0.000  -0.000   0.000  -0.000   0.000  -0.000   0.000  -0.000  -0.000  -0.000  -0.000  -0.000   0.000   0.000   0.000
  0.000  -0.000   0.000  -0.000  -0.000  -0.000   0.000   0.000  -0.000  -0.000  -0.000  -0.000  -0.000   0.000   0.000  -0.000
 -0.000   0.000   0.000   0.000  -0.000  -0.000  -0.000   0.000  -0.000   0.000   0.000   0.000   0.000   0.000  -0.000  -0.000
  0.000   0.000   0.000  -0.000   0.000  -0.000   0.000  -0.000   0.000   0.000   0.000   0.000   0.000  -0.000  -0.000  -0.000
 -0.000   0.000  -0.000   0.000   0.000   0.000  -0.000  -0.000   0.000   0.000   0.000   0.000   0.000  -0.000  -0.000  -0.000
 -0.000  -0.000   0.000  -0.000  -0.000  -0.000   0.000   0.000  -0.000   0.000   0.000  -0.000   0.000   0.000  -0.000  -0.000
 -0.000   0.000  -0.000  -0.000  -0.000   0.000   0.000   0.000   0.000   0.000  -0.000   0.000  -0.000  -0.000  -0.000   0.000
  0.000   0.000  -0.000  -0.000  -0.000   0.000   0.000   0.000   0.000  -0.000  -0.000  -0.000   0.000  -0.000   0.000   0.000
  0.000  -0.000  -0.000  -0.000  -0.000   0.000   0.000   0.000  -0.000   0.000  -0.000   0.000  -0.000   0.000  -0.000   0.000
  0.000  -0.000   0.000  -0.000  -0.000   0.000   0.000   0.000   0.000  -0.000   0.000  -0.000   0.000  -0.000   0.000  -0.000
  0.000   0.000  -0.000   0.000   0.000   0.000  -0.000  -0.000   0.000  -0.000  -0.000   0.000  -0.000  -0.000   0.000   0.000
  0.000  -0.000   0.000   0.000   0.000  -0.000  -0.000  -0.000  -0.000  -0.000   0.000  -0.000   0.000   0.000   0.000  -0.000
 -0.000  -0.000   0.000   0.000  -0.000  -0.000  -0.000  -0.000  -0.000   0.000   0.000   0.000  -0.000   0.000  -0.000  -0.000
 -0.000   0.000   0.000   0.000   0.000  -0.000  -0.000  -0.000   0.000  -0.000   0.000  -0.000   0.000  -0.000   0.000  -0.000
 -0.000   0.000  -0.000   0.000   0.000  -0.000  -0.000  -0.000  -0.000   0.000  -0.000   0.000  -0.000   0.000  -0.000   0.000


------------------------ aborting loop because EDIFF is reached ----------------------------------------


 


 total charge     
 
# of ion       s       p       d       tot
------------------------------------------
    1        2.017   5.843   0.234   8.095
    2        2.017   5.843   0.233   8.094
    3        2.017   5.843   0.233   8.094
    4        2.017   5.843   0.233   8.094
    5        0.696   0.640   9.751  11.087
    6        0.698   0.646   9.753  11.096
    7        1.259   2.387   0.000   3.646
    8        1.259   2.389   0.000   3.648
    9        1.258   2.390   0.000   3.648
   10        1.258   2.389   0.000   3.648
--------------------------------------------------
tot         14.497  34.214  20.439  69.149
 


 magnetization (x)
 
# of ion       s       p       d       tot
------------------------------------------
    1        0.000   0.000   0.000   0.000
    2        0.000   0.000   0.000   0.000
    3        0.000   0.000   0.000   0.000
    4        0.000   0.000   0.000   0.000
    5        0.000   0.000  -0.000   0.000
    6        0.000   0.000  -0.000   0.000
    7       -0.000  -0.000   0.000  -0.000
    8       -0.000  -0.000   0.000  -0.000
    9       -0.000  -0.000   0.000  -0.000
   10       -0.000  -0.000   0.000  -0.000
--------------------------------------------------
tot          0.000  -0.000   0.000  -0.000
 
    CHARGE:  cpu time    0.1196: real time    0.1196
    FORLOC:  cpu time    0.0006: real time    0.0006
    FORNL :  cpu time    0.6274: real time    0.6277
    STRESS:  cpu time   18.5522: real time   18.5545
    FORCOR:  cpu time    0.0305: real time    0.0310
    FORHAR:  cpu time    0.0024: real time    0.0026
    MIXING:  cpu time    0.0008: real time    0.0008
    OFIELD:  cpu time    0.0001: real time    0.0003

  FORCE on cell =-STRESS in cart. coord.  units (eV):
  Direction    XX          YY          ZZ          XY          YZ          ZX
  --------------------------------------------------------------------------------------
  Alpha Z   487.77387   487.77387   487.77387
  Ewald   -2222.29144 -2222.29059 -1162.32910    -0.00001    -0.00000     0.47000
  Hartree   510.07242   510.07289  1125.55976    -0.00000    -0.00000     0.30357
  E(xc)    -403.61727  -403.61724  -404.25092    -0.00000    -0.00000     0.00037
  Local     717.20673   717.20561  -911.00824     0.00001     0.00001    -0.76323
  n-local  -301.61123  -301.61116  -289.64024    -0.00000     0.00000     0.00285
  augment   115.32298   115.32299   111.06079     0.00000    -0.00000    -0.00152
  Kinetic  1097.09579  1097.09544  1042.44215    -0.00000     0.00000    -0.00945
  Fock        0.00000     0.00000     0.00000     0.00000     0.00000     0.00000
  -------------------------------------------------------------------------------------
  Total      -0.04816    -0.04821    -0.39193    -0.00000     0.00000     0.00260
  in kB      -0.40741    -0.40775    -3.31519    -0.00000     0.00000     0.02196
  external pressure =       -1.38 kB  Pullay stress =        0.00 kB


 VOLUME and BASIS-vectors are now :
 -----------------------------------------------------------------------------
  energy-cutoff  :      520.00
  volume of cell :      189.41
      direct lattice vectors                 reciprocal lattice vectors
     3.851102821  0.000000006 -0.000000101     0.259665879 -0.000000000  0.000000007
     0.000000007  3.851102715 -0.000000006    -0.000000000  0.259665886  0.000000000
    -0.000000333 -0.000000021 12.771321364     0.000000002  0.000000000  0.078300434

  length of vectors
     3.851102821  3.851102715 12.771321364     0.259665879  0.259665886  0.078300434


 FORCES acting on ions
    electron-ion (+dipol)            ewald-force                    non-local-force                 convergence-correction
 -----------------------------------------------------------------------------------------------
   0.645E-01 -.242E-04 0.146E+01   -.606E-01 0.231E-04 -.387E+01   -.323E-02 0.158E-05 0.244E+01   -.597E-06 -.127E-06 0.893E-04
   -.282E-03 -.361E-05 -.283E+01   -.229E-03 0.366E-05 0.518E+01   0.420E-03 -.118E-06 -.237E+01   -.412E-06 0.185E-06 0.106E-03
   -.408E-02 -.363E-05 0.189E+01   0.474E-02 0.346E-05 -.430E+01   -.651E-03 0.408E-06 0.240E+01   -.710E-07 -.603E-07 -.847E-04
   -.317E+00 -.317E-04 -.753E+00   0.296E+00 0.308E-04 0.322E+01   0.252E-01 0.124E-05 -.245E+01   0.379E-05 0.296E-07 -.697E-04
   0.298E+00 0.106E-04 -.228E+01   -.288E+00 -.109E-04 0.247E+01   -.563E-02 0.483E-06 -.520E-01   0.371E-05 -.888E-07 -.252E-03
   -.160E-02 0.752E-05 -.607E+00   0.196E-02 -.802E-05 0.541E+00   -.319E-03 0.126E-06 0.533E-01   0.578E-06 0.542E-06 0.171E-03
   -.165E-01 0.214E-04 -.126E+03   0.371E-01 -.215E-04 0.136E+03   -.261E-01 0.978E-08 -.105E+02   0.108E-05 -.178E-06 0.977E-04
   0.691E-02 0.146E-05 0.129E+03   -.416E-02 -.160E-05 -.140E+03   -.459E-02 0.967E-07 0.104E+02   0.150E-06 0.101E-06 -.183E-03
   0.322E-04 0.567E-05 -.130E+03   0.108E-03 -.601E-05 0.140E+03   -.190E-03 0.447E-06 -.104E+02   0.150E-06 -.425E-07 0.185E-03
   -.133E-01 0.130E-04 0.129E+03   0.129E-01 -.131E-04 -.140E+03   0.878E-03 -.375E-06 0.105E+02   0.208E-06 0.190E-06 -.972E-04
 -----------------------------------------------------------------------------------------------
   0.169E-01 -.365E-05 -.523E-01   -.148E-13 -.197E-13 0.568E-13   -.142E-01 0.390E-05 0.460E-01   0.859E-05 0.552E-06 -.378E-04
 
 
 POSITION                                       TOTAL-FORCE (eV/Angst)
 -----------------------------------------------------------------------------------
     -0.00000      3.85110      4.36603         0.000413      0.000000      0.023978
      0.00000     -0.00000      8.40529        -0.000360      0.000000     -0.019142
      1.92555      1.92555     10.75169        -0.000256      0.000000     -0.005862
      1.92555      1.92555      2.01963         0.003770      0.000000      0.021996
      3.85110      0.00000      0.00000         0.004481     -0.000000      0.148828
      1.92555      1.92555      6.38566        -0.000232     -0.000000     -0.012060
      0.00289      0.00000      1.83162        -0.005524     -0.000000     -0.216096
      3.85110      0.00000     10.94927        -0.002123     -0.000000      0.024852
      1.92555      1.92555      8.20771        -0.000318     -0.000000      0.013798
      1.92555      1.92555      4.56362         0.000148     -0.000000      0.019706
 -----------------------------------------------------------------------------------
    total drift:                                0.002680      0.000001     -0.006362


--------------------------------------------------------------------------------------------------------



  FREE ENERGIE OF THE ION-ELECTRON SYSTEM (eV)
  ---------------------------------------------------
  free  energy   TOTEN  =      -160.73156484 eV

  energy  without entropy=     -160.73156484  energy(sigma->0) =     -160.73156484
 


--------------------------------------------------------------------------------------------------------


    POTLOK:  cpu time    0.9317: real time    0.9318


--------------------------------------------------------------------------------------------------------


     LOOP+:  cpu time  271.5046: real time  271.9210
    4ORBIT:  cpu time    0.0000: real time    0.0000
 


 total charge     
 
# of ion       s       p       d       tot
------------------------------------------
    1        2.017   5.843   0.234   8.095
    2        2.017   5.843   0.233   8.094
    3        2.017   5.843   0.233   8.094
    4        2.017   5.843   0.233   8.094
    5        0.696   0.640   9.751  11.087
    6        0.698   0.646   9.753  11.096
    7        1.259   2.387   0.000   3.646
    8        1.259   2.389   0.000   3.648
    9        1.258   2.390   0.000   3.648
   10        1.258   2.389   0.000   3.648
--------------------------------------------------
tot         14.497  34.214  20.439  69.149
 


 magnetization (x)
 
# of ion       s       p       d       tot
------------------------------------------
    1        0.000   0.000   0.000   0.000
    2        0.000   0.000   0.000   0.000
    3        0.000   0.000   0.000   0.000
    4        0.000   0.000   0.000   0.000
    5        0.000   0.000  -0.000   0.000
    6        0.000   0.000  -0.000   0.000
    7       -0.000  -0.000   0.000  -0.000
    8       -0.000  -0.000   0.000  -0.000
    9       -0.000  -0.000   0.000  -0.000
   10       -0.000  -0.000   0.000  -0.000
--------------------------------------------------
tot          0.000  -0.000   0.000  -0.000
 

 total amount of memory used by VASP MPI-rank0   107651. kBytes
=======================================================================

   base      :      30000. kBytes
   nonl-proj :      55074. kBytes
   fftplans  :       1092. kBytes
   grid      :       4533. kBytes
   one-center:         93. kBytes
   wavefun   :      16859. kBytes
 
  
  
 General timing and accounting informations for this job:
 ========================================================
  
                  Total CPU time used (sec):      280.757
                            User time (sec):      273.739
                          System time (sec):        7.018
                         Elapsed time (sec):      281.698
  
                   Maximum memory used (kb):      169788.
                   Average memory used (kb):           0.
  
                          Minor page faults:        52676
                          Major page faults:            0
                 Voluntary context switches:          651
