 vasp.6.1.2 22Jul20 (build Apr 14 2021 21:39:43) complex                        
  
 executed on             LinuxIFC date 2022.12.02  18:40:47
 running on   64 total cores
 distrk:  each k-point on   64 cores,    1 groups
 distr:  one band on NCORE=   4 cores,   16 groups


--------------------------------------------------------------------------------------------------------


 INCAR:
 POTCAR:    PAW_PBE Sr_sv 07Sep2000               
 POTCAR:    PAW_PBE Zn 06Sep2000                  
 POTCAR:    PAW_PBE N 08Apr2002                   
 POTCAR:    PAW_PBE Sr_sv 07Sep2000               
   SHA256 =  a8389d3481648516ee67182ee030b298d280b37e29cbbf2d8595f040d757c710 Sr_sv/POTCAR          
   COPYR  = (c) Copyright 07Sep2000 Georg Kresse                                                    
   COPYR  = This file is part of the software VASP. Any use, copying, and all other rights are regul
   COPYR  = If you do not have a valid VASP license, you may not use, copy or distribute this file. 
   VRHFIN =Sr: 4s4p5s                                                                               
   LEXCH  = PE                                                                                      
   EATOM  =   843.0319 eV,   61.9611 Ry                                                             
                                                                                                    
   TITEL  = PAW_PBE Sr_sv 07Sep2000                                                                 
   LULTRA =        F    use ultrasoft PP ?                                                          
   IUNSCR =        1    unscreen: 0-lin 1-nonlin 2-no                                               
   RPACOR =    2.200    partial core radius                                                         
   POMASS =   87.620; ZVAL   =   10.000    mass and valenz                                          
   RCORE  =    2.500    outmost cutoff radius                                                       
   RWIGS  =    4.040; RWIGS  =    2.138    wigner-seitz radius (au A)                               
   ENMAX  =  229.353; ENMIN  =  172.014 eV                                                          
   RCLOC  =    2.201    cutoff for local pot                                                        
   LCOR   =        T    correct aug charges                                                         
   LPAW   =        T    paw PP                                                                      
   EAUG   =  366.804                                                                                
   DEXC   =    0.000                                                                                
   RMAX   =    2.547    core radius for proj-oper                                                   
   RAUG   =    1.300    factor for augmentation sphere                                              
   RDEP   =    2.562    radius for radial grids                                                     
   RDEPT  =    2.128    core radius for aug-charge                                                  
                                                                                                    
   Atomic configuration                                                                             
   10 entries                                                                                       
     n  l   j            E        occ.                                                              
     1  0  0.50    -15934.8930   2.0000                                                             
     2  0  0.50     -2157.6250   2.0000                                                             
     2  1  1.50     -1917.0034   6.0000                                                             
     3  0  0.50      -333.7288   2.0000                                                             
     3  1  1.50      -256.0992   6.0000                                                             
     3  2  2.50      -127.9971  10.0000                                                             
     4  0  0.50       -40.8953   2.0000                                                             
     5  0  0.50        -3.5257   1.9990                                                             
     4  1  1.50       -22.8179   6.0000                                                             
     4  2  1.50        -1.2815   0.0010                                                             
   Description                                                                                      
     l       E           TYP  RCUT    TYP  RCUT                                                     
     0    -40.8953213     23  2.480                                                                 
     0     -3.5257161     23  2.480                                                                 
     1    -22.8178632     23  2.500                                                                 
     1    -24.1784458     23  2.500                                                                 
     2     -1.2814598     23  2.500                                                                 
     2      0.2279365     23  2.500                                                                 
  local pseudopotential read in
  partial core-charges read in
  partial kinetic energy density read in
  atomic valenz-charges read in
  non local Contribution for L=           0  read in
    real space projection operators read in
  non local Contribution for L=           0  read in
    real space projection operators read in
  non local Contribution for L=           1  read in
    real space projection operators read in
  non local Contribution for L=           1  read in
    real space projection operators read in
  non local Contribution for L=           2  read in
    real space projection operators read in
  non local Contribution for L=           2  read in
    real space projection operators read in
    PAW grid and wavefunctions read in
 
   number of l-projection  operators is LMAX  =           6
   number of lm-projection operators is LMMAX =          18
 
 POTCAR:    PAW_PBE Zn 06Sep2000                  
   SHA256 =  501fddbd8274dd8e9725d4f3de27861d7f1e553a7e18441bc79fed8f346e7f23 Zn/POTCAR             
   COPYR  = (c) Copyright 06Sep2000 Georg Kresse                                                    
   COPYR  = This file is part of the software VASP. Any use, copying, and all other rights are regul
   COPYR  = If you do not have a valid VASP license, you may not use, copy or distribute this file. 
   VRHFIN =Zn: d10 p2                                                                               
   LEXCH  = PE                                                                                      
   EATOM  =  1748.8345 eV,  128.5357 Ry                                                             
                                                                                                    
   TITEL  = PAW_PBE Zn 06Sep2000                                                                    
   LULTRA =        F    use ultrasoft PP ?                                                          
   IUNSCR =        1    unscreen: 0-lin 1-nonlin 2-no                                               
   RPACOR =    2.000    partial core radius                                                         
   POMASS =   65.390; ZVAL   =   12.000    mass and valenz                                          
   RCORE  =    2.300    outmost cutoff radius                                                       
   RWIGS  =    2.400; RWIGS  =    1.270    wigner-seitz radius (au A)                               
   ENMAX  =  276.723; ENMIN  =  207.542 eV                                                          
   RCLOC  =    1.828    cutoff for local pot                                                        
   LCOR   =        T    correct aug charges                                                         
   LPAW   =        T    paw PP                                                                      
   EAUG   =  575.892                                                                                
   DEXC   =    0.000                                                                                
   RMAX   =    2.347    core radius for proj-oper                                                   
   RAUG   =    1.300    factor for augmentation sphere                                              
   RDEP   =    2.324    radius for radial grids                                                     
   RDEPT  =    1.788    core radius for aug-charge                                                  
                                                                                                    
   Atomic configuration                                                                             
    9 entries                                                                                       
     n  l   j            E        occ.                                                              
     1  0  0.50     -9524.6913   2.0000                                                             
     2  0  0.50     -1158.1882   2.0000                                                             
     2  1  1.50     -1003.8506   6.0000                                                             
     3  0  0.50      -129.2194   2.0000                                                             
     3  1  1.50       -83.3890   6.0000                                                             
     3  2  2.50       -10.1410  10.0000                                                             
     4  0  0.50        -5.9785   2.0000                                                             
     4  1  0.50        -4.0817   0.0000                                                             
     4  3  2.50        -1.3606   0.0000                                                             
   Description                                                                                      
     l       E           TYP  RCUT    TYP  RCUT                                                     
     2    -10.1410010     23  2.300                                                                 
     2    -11.5015836     23  2.300                                                                 
     0     -5.9785163     23  2.300                                                                 
     0      1.1858015     23  2.300                                                                 
     1     -2.7211652     23  2.300                                                                 
     1     13.2444212     23  2.300                                                                 
  local pseudopotential read in
  partial core-charges read in
  partial kinetic energy density read in
  atomic valenz-charges read in
  non local Contribution for L=           2  read in
    real space projection operators read in
  non local Contribution for L=           2  read in
    real space projection operators read in
  non local Contribution for L=           0  read in
    real space projection operators read in
  non local Contribution for L=           0  read in
    real space projection operators read in
  non local Contribution for L=           1  read in
    real space projection operators read in
  non local Contribution for L=           1  read in
    real space projection operators read in
    PAW grid and wavefunctions read in
 
   number of l-projection  operators is LMAX  =           6
   number of lm-projection operators is LMMAX =          18
 
 POTCAR:    PAW_PBE N 08Apr2002                   
   SHA256 =  e053789ff3a61a86a1b75d8a110fcc91f86041011e7b0817c7c99e4e8a6349d7 N/POTCAR              
   COPYR  = (c) Copyright 08Apr2002 Georg Kresse                                                    
   COPYR  = This file is part of the software VASP. Any use, copying, and all other rights are regul
   COPYR  = If you do not have a valid VASP license, you may not use, copy or distribute this file. 
   VRHFIN =N: s2p3                                                                                  
   LEXCH  = PE                                                                                      
   EATOM  =   264.5486 eV,   19.4438 Ry                                                             
                                                                                                    
   TITEL  = PAW_PBE N 08Apr2002                                                                     
   LULTRA =        F    use ultrasoft PP ?                                                          
   IUNSCR =        1    unscreen: 0-lin 1-nonlin 2-no                                               
   RPACOR =    1.200    partial core radius                                                         
   POMASS =   14.001; ZVAL   =    5.000    mass and valenz                                          
   RCORE  =    1.500    outmost cutoff radius                                                       
   RWIGS  =    1.400; RWIGS  =    0.741    wigner-seitz radius (au A)                               
   ENMAX  =  400.000; ENMIN  =  300.000 eV                                                          
   ICORE  =        2    local potential                                                             
   LCOR   =        T    correct aug charges                                                         
   LPAW   =        T    paw PP                                                                      
   EAUG   =  627.112                                                                                
   DEXC   =    0.000                                                                                
   RMAX   =    1.529    core radius for proj-oper                                                   
   RAUG   =    1.300    factor for augmentation sphere                                              
   RDEP   =    1.514    radius for radial grids                                                     
   RDEPT  =    1.338    core radius for aug-charge                                                  
                                                                                                    
   Atomic configuration                                                                             
    4 entries                                                                                       
     n  l   j            E        occ.                                                              
     1  0  0.50      -384.7179   2.0000                                                             
     2  0  0.50       -18.5828   2.0000                                                             
     2  1  0.50        -7.0898   3.0000                                                             
     3  2  1.50        -6.8029   0.0000                                                             
   Description                                                                                      
     l       E           TYP  RCUT    TYP  RCUT                                                     
     0    -18.5828119     23  1.200                                                                 
     0    -13.5018863     23  1.200                                                                 
     1     -7.0897853     23  1.500                                                                 
     1      9.5240782     23  1.500                                                                 
     2     -6.8029130      7  1.500                                                                 
  local pseudopotential read in
  partial core-charges read in
  partial kinetic energy density read in
  atomic valenz-charges read in
  non local Contribution for L=           0  read in
    real space projection operators read in
  non local Contribution for L=           0  read in
    real space projection operators read in
  non local Contribution for L=           1  read in
    real space projection operators read in
  non local Contribution for L=           1  read in
    real space projection operators read in
    PAW grid and wavefunctions read in
 
   number of l-projection  operators is LMAX  =           4
   number of lm-projection operators is LMMAX =           8
 
  PAW_PBE Sr_sv 07Sep2000               :
 energy of atom  1       EATOM= -843.0319
 kinetic energy error for atom=    0.0010 (will be added to EATOM!!)
  PAW_PBE Zn 06Sep2000                  :
 energy of atom  2       EATOM=-1748.8345
 kinetic energy error for atom=    0.0029 (will be added to EATOM!!)
  PAW_PBE N 08Apr2002                   :
 energy of atom  3       EATOM= -264.5486
 kinetic energy error for atom=    0.0125 (will be added to EATOM!!)
 
 
 POSCAR: generated by phonopy
  positions in direct lattice
  No initial velocities read in

 METAGGA = SCAN     LMAXTAU =  6    LMIXTAU =  F

 exchange correlation table for  LEXCH =        8
   RHO(1)=    0.500       N(1)  =     2000
   RHO(2)=  100.500       N(2)  =     4000
 


--------------------------------------------------------------------------------------------------------


 ion  position               nearest neighbor table
   1  0.000  1.000  0.342-   7 2.54  10 2.73  10 2.73  10 2.73  10 2.73   6 3.39   6 3.39   6 3.39
                             6 3.39   4 3.59   4 3.59   4 3.59   4 3.59   2 4.04
   2  0.000  0.000  0.658-   8 2.54   9 2.73   9 2.73   9 2.73   9 2.73   6 3.39   6 3.39   6 3.39
                             6 3.39   3 3.59   3 3.59   3 3.59   3 3.59   1 4.04
   3  0.500  0.500  0.842-   9 2.54   8 2.73   8 2.73   8 2.73   8 2.73   5 3.39   5 3.39   5 3.40
                             5 3.40   2 3.59   2 3.59   2 3.59   2 3.59   4 4.04
   4  0.500  0.500  0.158-  10 2.54   7 2.73   7 2.73   7 2.73   7 2.73   5 3.38   5 3.38   5 3.39
                             5 3.39   1 3.59   1 3.59   1 3.59   1 3.59   3 4.04
   5  0.001  0.000  0.001-   7 1.81   8 1.83   4 3.38   4 3.38   4 3.39   4 3.39   3 3.39   3 3.39
                             3 3.40   3 3.40
   6  0.500  0.500  0.500-  10 1.82   9 1.82   1 3.39   1 3.39   1 3.39   1 3.39   2 3.39   2 3.39
                             2 3.39   2 3.39
   7  1.000  0.000  0.143-   5 1.81   1 2.54   4 2.73   4 2.73   4 2.73   4 2.73
   8  1.000  0.000  0.857-   5 1.83   2 2.54   3 2.73   3 2.73   3 2.73   3 2.73
   9  0.500  0.500  0.643-   6 1.82   3 2.54   2 2.73   2 2.73   2 2.73   2 2.73
  10  0.500  0.500  0.357-   6 1.82   4 2.54   1 2.73   1 2.73   1 2.73   1 2.73
 

IMPORTANT INFORMATION: All symmetrisations will be switched off!
NOSYMM: (Re-)initialisation of all symmetry stuff for point group C_1.


----------------------------------------------------------------------------------------

                                     Primitive cell                                     

  volume of cell :     189.4114

  direct lattice vectors                    reciprocal lattice vectors
     3.851102821  0.000000006 -0.000000101     0.259665879 -0.000000000  0.000000007
     0.000000007  3.851102715 -0.000000006    -0.000000000  0.259665886  0.000000000
    -0.000000333 -0.000000021 12.771321364     0.000000002  0.000000000  0.078300434

  length of vectors
     3.851102821  3.851102715 12.771321364     0.259665879  0.259665886  0.078300434

  position of ions in fractional coordinates (direct lattice)
     0.000000015  0.999999969  0.341862114
     0.000000070  0.000000002  0.658137891
     0.500000049  0.500000008  0.841862095
     0.500000072  0.499999952  0.158137898
     0.000749653  0.000000014  0.000749918
     0.499999982  0.500000015  0.499999745
     0.999999969  0.000000005  0.142666958
     0.999999949  0.000000014  0.857332824
     0.499999967  0.500000003  0.642667132
     0.499999936  0.500000017  0.357333087

  ion indices of the primitive-cell ions
   primitive index   ion index
                 1           1
                 2           2
                 3           3
                 4           4
                 5           5
                 6           6
                 7           7
                 8           8
                 9           9
                10          10

----------------------------------------------------------------------------------------

 
 
 KPOINTS: Kpoints                                 

Automatic generation of k-mesh.
 generate k-points for:    8    8    3
Space group operators:
 irot       det(A)        alpha          n_x          n_y          n_z        tau_x        tau_y        tau_z
    1     1.000000     0.000000     1.000000     0.000000     0.000000     0.000000     0.000000     0.000000
 
 Subroutine IBZKPT returns following result:
 ===========================================
 
 Found     98 irreducible k-points:
 
 Following reciprocal coordinates:
            Coordinates               Weight
  0.000000  0.000000  0.000000      1.000000
  0.125000  0.000000  0.000000      2.000000
  0.000000  0.125000  0.000000      2.000000
  0.250000  0.000000  0.000000      2.000000
  0.000000  0.250000  0.000000      2.000000
  0.375000 -0.000000  0.000000      2.000000
  0.000000  0.375000 -0.000000      2.000000
  0.500000  0.000000  0.000000      1.000000
  0.000000  0.500000 -0.000000      1.000000
  0.125000  0.125000  0.000000      2.000000
 -0.125000  0.125000  0.000000      2.000000
  0.250000  0.125000  0.000000      2.000000
 -0.125000  0.250000  0.000000      2.000000
 -0.250000  0.125000  0.000000      2.000000
  0.125000  0.250000  0.000000      2.000000
  0.375000  0.125000  0.000000      2.000000
 -0.125000  0.375000 -0.000000      2.000000
 -0.375000  0.125000  0.000000      2.000000
  0.125000  0.375000 -0.000000      2.000000
  0.500000  0.125000  0.000000      2.000000
 -0.125000  0.500000 -0.000000      2.000000
  0.250000  0.250000  0.000000      2.000000
 -0.250000  0.250000  0.000000      2.000000
  0.375000  0.250000  0.000000      2.000000
 -0.250000  0.375000 -0.000000      2.000000
 -0.375000  0.250000  0.000000      2.000000
  0.250000  0.375000 -0.000000      2.000000
  0.500000  0.250000  0.000000      2.000000
 -0.250000  0.500000 -0.000000      2.000000
  0.375000  0.375000 -0.000000      2.000000
 -0.375000  0.375000 -0.000000      2.000000
  0.500000  0.375000 -0.000000      2.000000
 -0.375000  0.500000 -0.000000      2.000000
  0.500000  0.500000 -0.000000      1.000000
  0.000000  0.000000  0.333333      2.000000
  0.125000 -0.000000  0.333333      2.000000
 -0.000000  0.125000  0.333333      2.000000
 -0.125000 -0.000000  0.333333      2.000000
 -0.000000 -0.125000  0.333333      2.000000
  0.250000  0.000000  0.333333      2.000000
 -0.000000  0.250000  0.333333      2.000000
 -0.250000  0.000000  0.333333      2.000000
  0.000000 -0.250000  0.333333      2.000000
  0.375000 -0.000000  0.333333      2.000000
  0.000000  0.375000  0.333333      2.000000
 -0.375000  0.000000  0.333333      2.000000
  0.000000 -0.375000  0.333333      2.000000
  0.500000  0.000000  0.333333      2.000000
 -0.000000  0.500000  0.333333      2.000000
  0.125000  0.125000  0.333333      2.000000
 -0.125000  0.125000  0.333333      2.000000
 -0.125000 -0.125000  0.333333      2.000000
  0.125000 -0.125000  0.333333      2.000000
  0.250000  0.125000  0.333333      2.000000
 -0.125000  0.250000  0.333333      2.000000
 -0.250000 -0.125000  0.333333      2.000000
  0.125000 -0.250000  0.333333      2.000000
 -0.250000  0.125000 -0.333333      2.000000
  0.125000  0.250000 -0.333333      2.000000
  0.250000 -0.125000 -0.333333      2.000000
 -0.125000 -0.250000 -0.333333      2.000000
  0.375000  0.125000  0.333333      2.000000
 -0.125000  0.375000  0.333333      2.000000
 -0.375000 -0.125000  0.333333      2.000000
  0.125000 -0.375000  0.333333      2.000000
 -0.375000  0.125000 -0.333333      2.000000
  0.125000  0.375000 -0.333333      2.000000
  0.375000 -0.125000 -0.333333      2.000000
 -0.125000 -0.375000 -0.333333      2.000000
  0.500000  0.125000  0.333333      2.000000
 -0.125000  0.500000  0.333333      2.000000
  0.500000 -0.125000  0.333333      2.000000
  0.125000  0.500000  0.333333      2.000000
  0.250000  0.250000  0.333333      2.000000
 -0.250000  0.250000  0.333333      2.000000
 -0.250000 -0.250000  0.333333      2.000000
  0.250000 -0.250000  0.333333      2.000000
  0.375000  0.250000  0.333333      2.000000
 -0.250000  0.375000  0.333333      2.000000
 -0.375000 -0.250000  0.333333      2.000000
  0.250000 -0.375000  0.333333      2.000000
 -0.375000  0.250000 -0.333333      2.000000
  0.250000  0.375000 -0.333333      2.000000
  0.375000 -0.250000 -0.333333      2.000000
 -0.250000 -0.375000 -0.333333      2.000000
  0.500000  0.250000  0.333333      2.000000
 -0.250000  0.500000  0.333333      2.000000
  0.500000 -0.250000  0.333333      2.000000
  0.250000  0.500000  0.333333      2.000000
  0.375000  0.375000  0.333333      2.000000
 -0.375000  0.375000  0.333333      2.000000
 -0.375000 -0.375000  0.333333      2.000000
  0.375000 -0.375000  0.333333      2.000000
  0.500000  0.375000  0.333333      2.000000
 -0.375000  0.500000  0.333333      2.000000
  0.500000 -0.375000  0.333333      2.000000
  0.375000  0.500000  0.333333      2.000000
  0.500000  0.500000  0.333333      2.000000
 
 Following cartesian coordinates:
            Coordinates               Weight
  0.000000  0.000000  0.000000      1.000000
  0.032458 -0.000000  0.000000      2.000000
 -0.000000  0.032458  0.000000      2.000000
  0.064916 -0.000000  0.000000      2.000000
 -0.000000  0.064916  0.000000      2.000000
  0.097375 -0.000000  0.000000      2.000000
 -0.000000  0.097375  0.000000      2.000000
  0.129833 -0.000000  0.000000      1.000000
 -0.000000  0.129833  0.000000      1.000000
  0.032458  0.032458  0.000000      2.000000
 -0.032458  0.032458 -0.000000      2.000000
  0.064916  0.032458  0.000000      2.000000
 -0.032458  0.064916 -0.000000      2.000000
 -0.064916  0.032458 -0.000000      2.000000
  0.032458  0.064916  0.000000      2.000000
  0.097375  0.032458  0.000000      2.000000
 -0.032458  0.097375 -0.000000      2.000000
 -0.097375  0.032458 -0.000000      2.000000
  0.032458  0.097375  0.000000      2.000000
  0.129833  0.032458  0.000000      2.000000
 -0.032458  0.129833 -0.000000      2.000000
  0.064916  0.064916  0.000000      2.000000
 -0.064916  0.064916 -0.000000      2.000000
  0.097375  0.064916  0.000000      2.000000
 -0.064916  0.097375 -0.000000      2.000000
 -0.097375  0.064916 -0.000000      2.000000
  0.064916  0.097375  0.000000      2.000000
  0.129833  0.064916  0.000000      2.000000
 -0.064916  0.129833 -0.000000      2.000000
  0.097375  0.097375  0.000000      2.000000
 -0.097375  0.097375 -0.000000      2.000000
  0.129833  0.097375  0.000000      2.000000
 -0.097375  0.129833 -0.000000      2.000000
  0.129833  0.129833  0.000000      1.000000
  0.000000  0.000000  0.026100      2.000000
  0.032458 -0.000000  0.026100      2.000000
  0.000000  0.032458  0.026100      2.000000
 -0.032458  0.000000  0.026100      2.000000
  0.000000 -0.032458  0.026100      2.000000
  0.064916 -0.000000  0.026100      2.000000
  0.000000  0.064916  0.026100      2.000000
 -0.064916  0.000000  0.026100      2.000000
  0.000000 -0.064916  0.026100      2.000000
  0.097375 -0.000000  0.026100      2.000000
  0.000000  0.097375  0.026100      2.000000
 -0.097375  0.000000  0.026100      2.000000
  0.000000 -0.097375  0.026100      2.000000
  0.129833 -0.000000  0.026100      2.000000
  0.000000  0.129833  0.026100      2.000000
  0.032458  0.032458  0.026100      2.000000
 -0.032458  0.032458  0.026100      2.000000
 -0.032458 -0.032458  0.026100      2.000000
  0.032458 -0.032458  0.026100      2.000000
  0.064916  0.032458  0.026100      2.000000
 -0.032458  0.064916  0.026100      2.000000
 -0.064916 -0.032458  0.026100      2.000000
  0.032458 -0.064916  0.026100      2.000000
 -0.064916  0.032458 -0.026100      2.000000
  0.032458  0.064916 -0.026100      2.000000
  0.064916 -0.032458 -0.026100      2.000000
 -0.032458 -0.064916 -0.026100      2.000000
  0.097375  0.032458  0.026100      2.000000
 -0.032458  0.097375  0.026100      2.000000
 -0.097375 -0.032458  0.026100      2.000000
  0.032458 -0.097375  0.026100      2.000000
 -0.097375  0.032458 -0.026100      2.000000
  0.032458  0.097375 -0.026100      2.000000
  0.097375 -0.032458 -0.026100      2.000000
 -0.032458 -0.097375 -0.026100      2.000000
  0.129833  0.032458  0.026100      2.000000
 -0.032458  0.129833  0.026100      2.000000
  0.129833 -0.032458  0.026100      2.000000
  0.032458  0.129833  0.026100      2.000000
  0.064916  0.064916  0.026100      2.000000
 -0.064916  0.064916  0.026100      2.000000
 -0.064916 -0.064916  0.026100      2.000000
  0.064916 -0.064916  0.026100      2.000000
  0.097375  0.064916  0.026100      2.000000
 -0.064916  0.097375  0.026100      2.000000
 -0.097375 -0.064916  0.026100      2.000000
  0.064916 -0.097375  0.026100      2.000000
 -0.097375  0.064916 -0.026100      2.000000
  0.064916  0.097375 -0.026100      2.000000
  0.097375 -0.064916 -0.026100      2.000000
 -0.064916 -0.097375 -0.026100      2.000000
  0.129833  0.064916  0.026100      2.000000
 -0.064916  0.129833  0.026100      2.000000
  0.129833 -0.064916  0.026100      2.000000
  0.064916  0.129833  0.026100      2.000000
  0.097375  0.097375  0.026100      2.000000
 -0.097375  0.097375  0.026100      2.000000
 -0.097375 -0.097375  0.026100      2.000000
  0.097375 -0.097375  0.026100      2.000000
  0.129833  0.097375  0.026100      2.000000
 -0.097375  0.129833  0.026100      2.000000
  0.129833 -0.097375  0.026100      2.000000
  0.097375  0.129833  0.026100      2.000000
  0.129833  0.129833  0.026100      2.000000
 


--------------------------------------------------------------------------------------------------------




 Dimension of arrays:
   k-points           NKPTS =     98   k-points in BZ     NKDIM =     98   number of bands    NBANDS=     64
   number of dos      NEDOS =    301   number of ions     NIONS =     10
   non local maximal  LDIM  =      6   non local SUM 2l+1 LMDIM =     18
   total plane-waves  NPLWV =  86400
   max r-space proj   IRMAX =      1   max aug-charges    IRDMAX=  26943
   dimension x,y,z NGX =    30 NGY =   30 NGZ =   96
   dimension x,y,z NGXF=    60 NGYF=   60 NGZF=  192
   support grid    NGXF=    60 NGYF=   60 NGZF=  192
   ions per type =               4   2   4
   NGX,Y,Z   is equivalent  to a cutoff of  12.95, 12.95, 12.50 a.u.
   NGXF,Y,Z  is equivalent  to a cutoff of  25.90, 25.90, 24.99 a.u.

 SYSTEM =  unknown system                          
 POSCAR =  generated by phonopy                    

 Startparameter for this run:
   NWRITE =      2    write-flag & timer
   PREC   = accura    normal or accurate (medium, high low for compatibility)
   ISTART =      0    job   : 0-new  1-cont  2-samecut
   ICHARG =      2    charge: 1-file 2-atom 10-const
   ISPIN  =      2    spin polarized calculation?
   LNONCOLLINEAR =      F non collinear calculations
   LSORBIT =      F    spin-orbit coupling
   INIWAV =      1    electr: 0-lowe 1-rand  2-diag
   LASPH  =      T    aspherical Exc in radial PAW
   METAGGA=      F    non-selfconsistent MetaGGA calc.

 Electronic Relaxation 1
   ENCUT  =  520.0 eV  38.22 Ry    6.18 a.u.   7.16  7.16 23.75*2*pi/ulx,y,z
   ENINI  =  520.0     initial cutoff
   ENAUG  =  627.1 eV  augmentation charge cutoff
   NELM   =    200;   NELMIN=  6; NELMDL= -5     # of ELM steps 
   EDIFF  = 0.1E-05   stopping-criterion for ELM
   LREAL  =      F    real-space projection
   NLSPLINE    = F    spline interpolate recip. space projectors
   LCOMPAT=      F    compatible to vasp.4.4
   GGA_COMPAT  = T    GGA compatible to vasp.4.4-vasp.4.6
   LMAXPAW     = -100 max onsite density
   LMAXMIX     =    2 max onsite mixed and CHGCAR
   VOSKOWN=      0    Vosko Wilk Nusair interpolation
   ROPT   =    0.00000   0.00000   0.00000
 Ionic relaxation
   EDIFFG = -.3E-01   stopping-criterion for IOM
   NSW    =      0    number of steps for IOM
   NBLOCK =      1;   KBLOCK =      1    inner block; outer block 
   IBRION =     -1    ionic relax: 0-MD 1-quasi-New 2-CG
   NFREE  =      0    steps in history (QN), initial steepest desc. (CG)
   ISIF   =      2    stress and relaxation
   IWAVPR =     10    prediction:  0-non 1-charg 2-wave 3-comb
   ISYM   =      0    0-nonsym 1-usesym 2-fastsym
   LCORR  =      T    Harris-Foulkes like correction to forces

   POTIM  = 0.5000    time-step for ionic-motion
   TEIN   =    0.0    initial temperature
   TEBEG  =    0.0;   TEEND  =   0.0 temperature during run
   SMASS  =  -3.00    Nose mass-parameter (am)
   estimated Nose-frequenzy (Omega)   =  0.10E-29 period in steps = 0.13E+47 mass=  -0.339E-27a.u.
   SCALEE = 1.0000    scale energy and forces
   NPACO  =    256;   APACO  = 16.0  distance and # of slots for P.C.
   PSTRESS=    0.0 pullay stress

  Mass of Ions in am
   POMASS =  87.62 65.39 14.00
  Ionic Valenz
   ZVAL   =  10.00 12.00  5.00
  Atomic Wigner-Seitz radii
   RWIGS  =  -1.00 -1.00 -1.00
  virtual crystal weights 
   VCA    =   1.00  1.00  1.00
   NELECT =      84.0000    total number of electrons
   NUPDOWN=      -1.0000    fix difference up-down

 DOS related values:
   EMIN   =  10.00;   EMAX   =-10.00  energy-range for DOS
   EFERMI =   0.00
   ISMEAR =     0;   SIGMA  =   0.05  broadening in eV -4-tet -1-fermi 0-gaus

 Electronic relaxation 2 (details)
   IALGO  =     38    algorithm
   LDIAG  =      T    sub-space diagonalisation (order eigenvalues)
   LSUBROT=      F    optimize rotation matrix (better conditioning)
   TURBO    =      0    0=normal 1=particle mesh
   IRESTART =      0    0=no restart 2=restart with 2 vectors
   NREBOOT  =      0    no. of reboots
   NMIN     =      0    reboot dimension
   EREF     =   0.00    reference energy to select bands
   IMIX   =      4    mixing-type and parameters
     AMIX     =   0.40;   BMIX     =  1.00
     AMIX_MAG =   1.60;   BMIX_MAG =  1.00
     AMIN     =   0.10
     WC   =   100.;   INIMIX=   1;  MIXPRE=   1;  MAXMIX= -45

 Intra band minimization:
   WEIMIN = 0.0000     energy-eigenvalue tresh-hold
   EBREAK =  0.39E-08  absolut break condition
   DEPER  =   0.30     relativ break condition  

   TIME   =   0.40     timestep for ELM

  volume/ion in A,a.u.               =      18.94       127.82
  Fermi-wavevector in a.u.,A,eV,Ry     =   1.248435  2.359200 21.205901  1.558590
  Thomas-Fermi vector in A             =   2.382522
 
 Write flags
   LWAVE        =      F    write WAVECAR
   LDOWNSAMPLE  =      F    k-point downsampling of WAVECAR
   LCHARG       =      F    write CHGCAR
   LVTOT        =      F    write LOCPOT, total local potential
   LVHAR        =      F    write LOCPOT, Hartree potential only
   LELF         =      F    write electronic localiz. function (ELF)
   LORBIT       =     11    0 simple, 1 ext, 2 COOP (PROOUT), +10 PAW based schemes


 Dipole corrections
   LMONO  =      F    monopole corrections only (constant potential shift)
   LDIPOL =      F    correct potential (dipole corrections)
   IDIPOL =      0    1-x, 2-y, 3-z, 4-all directions 
   EPSILON=  1.0000000 bulk dielectric constant

 Exchange correlation treatment:
   GGA     =    --    GGA type
   LEXCH   =     8    internal setting for exchange type
   VOSKOWN=      0    Vosko Wilk Nusair interpolation
   LHFCALC =     F    Hartree Fock is set to
   LHFONE  =     F    Hartree Fock one center treatment
   AEXX    =    0.0000 exact exchange contribution

 Linear response parameters
   LEPSILON=     F    determine dielectric tensor
   LRPA    =     F    only Hartree local field effects (RPA)
   LNABLA  =     F    use nabla operator in PAW spheres
   LVEL    =     F    velocity operator in full k-point grid
   LINTERFAST=   F  fast interpolation
   KINTER  =     0    interpolate to denser k-point grid
   CSHIFT  =0.1000    complex shift for real part using Kramers Kronig
   OMEGAMAX=  -1.0    maximum frequency
   DEG_THRESHOLD= 0.2000000E-02 threshold for treating states as degnerate
   RTIME   =   -0.100 relaxation time in fs
  (WPLASMAI=    0.000 imaginary part of plasma frequency in eV, 0.658/RTIME)
   DFIELD  = 0.0000000 0.0000000 0.0000000 field for delta impulse in time
 
 Orbital magnetization related:
   ORBITALMAG=     F  switch on orbital magnetization
   LCHIMAG   =     F  perturbation theory with respect to B field
   DQ        =  0.001000  dq finite difference perturbation B field
   LLRAUG    =     F  two centre corrections for induced B field



--------------------------------------------------------------------------------------------------------


 Static calculation
 charge density and potential will be updated during run
 spin polarized calculation
 Variant of blocked Davidson
 Davidson routine will perform the subspace rotation
 perform sub-space diagonalisation
    after iterative eigenvector-optimisation
 modified Broyden-mixing scheme, WC =      100.0
 initial mixing is a Kerker type mixing with AMIX =  0.4000 and BMIX =      1.0000
 Hartree-type preconditioning will be used
 using additional bands           22
 reciprocal scheme for non local part
 use partial core corrections
 calculate Harris-corrections to forces 
   (improved forces if not selfconsistent)
 use gradient corrections 
 use of overlap-Matrix (Vanderbilt PP)
 Gauss-broadening in eV      SIGMA  =   0.05


--------------------------------------------------------------------------------------------------------


  energy-cutoff  :      520.00
  volume of cell :      189.41
      direct lattice vectors                 reciprocal lattice vectors
     3.851102821  0.000000006 -0.000000101     0.259665879 -0.000000000  0.000000007
     0.000000007  3.851102715 -0.000000006    -0.000000000  0.259665886  0.000000000
    -0.000000333 -0.000000021 12.771321364     0.000000002  0.000000000  0.078300434

  length of vectors
     3.851102821  3.851102715 12.771321364     0.259665879  0.259665886  0.078300434


 
 k-points in units of 2pi/SCALE and weight: Kpoints                                 
   0.00000000  0.00000000  0.00000000       0.005
   0.03245823 -0.00000000  0.00000000       0.010
  -0.00000000  0.03245824  0.00000000       0.010
   0.06491647 -0.00000000  0.00000000       0.010
  -0.00000000  0.06491647  0.00000000       0.010
   0.09737470 -0.00000000  0.00000000       0.010
  -0.00000000  0.09737471  0.00000000       0.010
   0.12983294 -0.00000000  0.00000000       0.005
  -0.00000000  0.12983294  0.00000000       0.005
   0.03245823  0.03245824  0.00000000       0.010
  -0.03245823  0.03245824 -0.00000000       0.010
   0.06491647  0.03245824  0.00000000       0.010
  -0.03245824  0.06491647 -0.00000000       0.010
  -0.06491647  0.03245824 -0.00000000       0.010
   0.03245823  0.06491647  0.00000000       0.010
   0.09737470  0.03245824  0.00000000       0.010
  -0.03245824  0.09737471 -0.00000000       0.010
  -0.09737470  0.03245824 -0.00000000       0.010
   0.03245823  0.09737471  0.00000000       0.010
   0.12983294  0.03245824  0.00000000       0.010
  -0.03245824  0.12983294 -0.00000000       0.010
   0.06491647  0.06491647  0.00000000       0.010
  -0.06491647  0.06491647 -0.00000000       0.010
   0.09737470  0.06491647  0.00000000       0.010
  -0.06491647  0.09737471 -0.00000000       0.010
  -0.09737470  0.06491647 -0.00000000       0.010
   0.06491647  0.09737471  0.00000000       0.010
   0.12983294  0.06491647  0.00000000       0.010
  -0.06491647  0.12983294 -0.00000000       0.010
   0.09737470  0.09737471  0.00000000       0.010
  -0.09737470  0.09737471 -0.00000000       0.010
   0.12983294  0.09737471  0.00000000       0.010
  -0.09737470  0.12983294 -0.00000000       0.010
   0.12983294  0.12983294  0.00000000       0.005
   0.00000000  0.00000000  0.02610014       0.010
   0.03245824 -0.00000000  0.02610015       0.010
   0.00000000  0.03245824  0.02610014       0.010
  -0.03245823  0.00000000  0.02610014       0.010
   0.00000000 -0.03245824  0.02610014       0.010
   0.06491647 -0.00000000  0.02610015       0.010
   0.00000000  0.06491647  0.02610014       0.010
  -0.06491647  0.00000000  0.02610014       0.010
   0.00000000 -0.06491647  0.02610014       0.010
   0.09737471 -0.00000000  0.02610015       0.010
   0.00000000  0.09737471  0.02610014       0.010
  -0.09737470  0.00000000  0.02610014       0.010
   0.00000000 -0.09737471  0.02610014       0.010
   0.12983294 -0.00000000  0.02610015       0.010
   0.00000000  0.12983294  0.02610014       0.010
   0.03245824  0.03245824  0.02610015       0.010
  -0.03245823  0.03245824  0.02610014       0.010
  -0.03245823 -0.03245824  0.02610014       0.010
   0.03245824 -0.03245824  0.02610015       0.010
   0.06491647  0.03245824  0.02610015       0.010
  -0.03245823  0.06491647  0.02610014       0.010
  -0.06491647 -0.03245824  0.02610014       0.010
   0.03245824 -0.06491647  0.02610015       0.010
  -0.06491647  0.03245824 -0.02610015       0.010
   0.03245823  0.06491647 -0.02610014       0.010
   0.06491647 -0.03245824 -0.02610014       0.010
  -0.03245824 -0.06491647 -0.02610015       0.010
   0.09737471  0.03245824  0.02610015       0.010
  -0.03245823  0.09737471  0.02610014       0.010
  -0.09737470 -0.03245824  0.02610014       0.010
   0.03245824 -0.09737471  0.02610015       0.010
  -0.09737471  0.03245824 -0.02610015       0.010
   0.03245823  0.09737471 -0.02610014       0.010
   0.09737470 -0.03245824 -0.02610014       0.010
  -0.03245824 -0.09737471 -0.02610015       0.010
   0.12983294  0.03245824  0.02610015       0.010
  -0.03245823  0.12983294  0.02610014       0.010
   0.12983294 -0.03245824  0.02610015       0.010
   0.03245824  0.12983294  0.02610015       0.010
   0.06491647  0.06491647  0.02610015       0.010
  -0.06491647  0.06491647  0.02610014       0.010
  -0.06491647 -0.06491647  0.02610014       0.010
   0.06491647 -0.06491647  0.02610015       0.010
   0.09737471  0.06491647  0.02610015       0.010
  -0.06491647  0.09737471  0.02610014       0.010
  -0.09737470 -0.06491647  0.02610014       0.010
   0.06491647 -0.09737471  0.02610015       0.010
  -0.09737471  0.06491647 -0.02610015       0.010
   0.06491647  0.09737471 -0.02610014       0.010
   0.09737470 -0.06491647 -0.02610014       0.010
  -0.06491647 -0.09737471 -0.02610015       0.010
   0.12983294  0.06491647  0.02610015       0.010
  -0.06491647  0.12983294  0.02610014       0.010
   0.12983294 -0.06491647  0.02610015       0.010
   0.06491647  0.12983294  0.02610015       0.010
   0.09737471  0.09737471  0.02610015       0.010
  -0.09737470  0.09737471  0.02610014       0.010
  -0.09737470 -0.09737471  0.02610014       0.010
   0.09737471 -0.09737471  0.02610015       0.010
   0.12983294  0.09737471  0.02610015       0.010
  -0.09737470  0.12983294  0.02610014       0.010
   0.12983294 -0.09737471  0.02610015       0.010
   0.09737471  0.12983294  0.02610015       0.010
   0.12983294  0.12983294  0.02610015       0.010
 
 k-points in reciprocal lattice and weights: Kpoints                                 
   0.00000000  0.00000000  0.00000000       0.005
   0.12500000  0.00000000  0.00000000       0.010
   0.00000000  0.12500000  0.00000000       0.010
   0.25000000  0.00000000  0.00000000       0.010
   0.00000000  0.25000000  0.00000000       0.010
   0.37500000 -0.00000000  0.00000000       0.010
   0.00000000  0.37500000 -0.00000000       0.010
   0.50000000  0.00000000  0.00000000       0.005
   0.00000000  0.50000000 -0.00000000       0.005
   0.12500000  0.12500000  0.00000000       0.010
  -0.12500000  0.12500000  0.00000000       0.010
   0.25000000  0.12500000  0.00000000       0.010
  -0.12500000  0.25000000  0.00000000       0.010
  -0.25000000  0.12500000  0.00000000       0.010
   0.12500000  0.25000000  0.00000000       0.010
   0.37500000  0.12500000  0.00000000       0.010
  -0.12500000  0.37500000 -0.00000000       0.010
  -0.37500000  0.12500000  0.00000000       0.010
   0.12500000  0.37500000 -0.00000000       0.010
   0.50000000  0.12500000  0.00000000       0.010
  -0.12500000  0.50000000 -0.00000000       0.010
   0.25000000  0.25000000  0.00000000       0.010
  -0.25000000  0.25000000  0.00000000       0.010
   0.37500000  0.25000000  0.00000000       0.010
  -0.25000000  0.37500000 -0.00000000       0.010
  -0.37500000  0.25000000  0.00000000       0.010
   0.25000000  0.37500000 -0.00000000       0.010
   0.50000000  0.25000000  0.00000000       0.010
  -0.25000000  0.50000000 -0.00000000       0.010
   0.37500000  0.37500000 -0.00000000       0.010
  -0.37500000  0.37500000 -0.00000000       0.010
   0.50000000  0.37500000 -0.00000000       0.010
  -0.37500000  0.50000000 -0.00000000       0.010
   0.50000000  0.50000000 -0.00000000       0.005
   0.00000000  0.00000000  0.33333333       0.010
   0.12500000 -0.00000000  0.33333333       0.010
  -0.00000000  0.12500000  0.33333333       0.010
  -0.12500000 -0.00000000  0.33333333       0.010
  -0.00000000 -0.12500000  0.33333333       0.010
   0.25000000  0.00000000  0.33333333       0.010
  -0.00000000  0.25000000  0.33333333       0.010
  -0.25000000  0.00000000  0.33333333       0.010
   0.00000000 -0.25000000  0.33333333       0.010
   0.37500000 -0.00000000  0.33333333       0.010
   0.00000000  0.37500000  0.33333333       0.010
  -0.37500000  0.00000000  0.33333333       0.010
   0.00000000 -0.37500000  0.33333333       0.010
   0.50000000  0.00000000  0.33333333       0.010
  -0.00000000  0.50000000  0.33333333       0.010
   0.12500000  0.12500000  0.33333333       0.010
  -0.12500000  0.12500000  0.33333333       0.010
  -0.12500000 -0.12500000  0.33333333       0.010
   0.12500000 -0.12500000  0.33333333       0.010
   0.25000000  0.12500000  0.33333333       0.010
  -0.12500000  0.25000000  0.33333333       0.010
  -0.25000000 -0.12500000  0.33333333       0.010
   0.12500000 -0.25000000  0.33333333       0.010
  -0.25000000  0.12500000 -0.33333333       0.010
   0.12500000  0.25000000 -0.33333333       0.010
   0.25000000 -0.12500000 -0.33333333       0.010
  -0.12500000 -0.25000000 -0.33333333       0.010
   0.37500000  0.12500000  0.33333333       0.010
  -0.12500000  0.37500000  0.33333333       0.010
  -0.37500000 -0.12500000  0.33333333       0.010
   0.12500000 -0.37500000  0.33333333       0.010
  -0.37500000  0.12500000 -0.33333333       0.010
   0.12500000  0.37500000 -0.33333333       0.010
   0.37500000 -0.12500000 -0.33333333       0.010
  -0.12500000 -0.37500000 -0.33333333       0.010
   0.50000000  0.12500000  0.33333333       0.010
  -0.12500000  0.50000000  0.33333333       0.010
   0.50000000 -0.12500000  0.33333333       0.010
   0.12500000  0.50000000  0.33333333       0.010
   0.25000000  0.25000000  0.33333333       0.010
  -0.25000000  0.25000000  0.33333333       0.010
  -0.25000000 -0.25000000  0.33333333       0.010
   0.25000000 -0.25000000  0.33333333       0.010
   0.37500000  0.25000000  0.33333333       0.010
  -0.25000000  0.37500000  0.33333333       0.010
  -0.37500000 -0.25000000  0.33333333       0.010
   0.25000000 -0.37500000  0.33333333       0.010
  -0.37500000  0.25000000 -0.33333333       0.010
   0.25000000  0.37500000 -0.33333333       0.010
   0.37500000 -0.25000000 -0.33333333       0.010
  -0.25000000 -0.37500000 -0.33333333       0.010
   0.50000000  0.25000000  0.33333333       0.010
  -0.25000000  0.50000000  0.33333333       0.010
   0.50000000 -0.25000000  0.33333333       0.010
   0.25000000  0.50000000  0.33333333       0.010
   0.37500000  0.37500000  0.33333333       0.010
  -0.37500000  0.37500000  0.33333333       0.010
  -0.37500000 -0.37500000  0.33333333       0.010
   0.37500000 -0.37500000  0.33333333       0.010
   0.50000000  0.37500000  0.33333333       0.010
  -0.37500000  0.50000000  0.33333333       0.010
   0.50000000 -0.37500000  0.33333333       0.010
   0.37500000  0.50000000  0.33333333       0.010
   0.50000000  0.50000000  0.33333333       0.010
 
 position of ions in fractional coordinates (direct lattice) 
   0.00000002  0.99999997  0.34186211
   0.00000007  0.00000000  0.65813789
   0.50000005  0.50000001  0.84186210
   0.50000007  0.49999995  0.15813790
   0.00074965  0.00000001  0.00074992
   0.49999998  0.50000002  0.49999974
   0.99999997  0.00000001  0.14266696
   0.99999995  0.00000001  0.85733282
   0.49999997  0.50000000  0.64266713
   0.49999994  0.50000002  0.35733309
 
 position of ions in cartesian coordinates  (Angst):
  -0.00000005  3.85110259  4.36603091
   0.00000005 -0.00000001  8.40529051
   1.92555132  1.92555137 10.75169131
   1.92555164  1.92555117  2.01962986
   0.00288699  0.00000005  0.00957744
   1.92555118  1.92555141  6.38565737
   3.85110265  0.00000002  1.82204547
   3.85110234  0.00000004 10.94927291
   1.92555107  1.92555136  8.20770842
   1.92555105  1.92555142  4.56361564
 


--------------------------------------------------------------------------------------------------------


 k-point   1 :   0.0000 0.0000 0.0000  plane waves:    5047
 k-point   2 :   0.1250 0.0000 0.0000  plane waves:    5075
 k-point   3 :   0.0000 0.1250 0.0000  plane waves:    5075
 k-point   4 :   0.2500 0.0000 0.0000  plane waves:    5094
 k-point   5 :   0.0000 0.2500 0.0000  plane waves:    5094
 k-point   6 :   0.3750-0.0000 0.0000  plane waves:    5118
 k-point   7 :   0.0000 0.3750-0.0000  plane waves:    5118
 k-point   8 :   0.5000 0.0000 0.0000  plane waves:    5078
 k-point   9 :   0.0000 0.5000-0.0000  plane waves:    5078
 k-point  10 :   0.1250 0.1250 0.0000  plane waves:    5074
 k-point  11 :  -0.1250 0.1250 0.0000  plane waves:    5074
 k-point  12 :   0.2500 0.1250 0.0000  plane waves:    5086
 k-point  13 :  -0.1250 0.2500 0.0000  plane waves:    5086
 k-point  14 :  -0.2500 0.1250 0.0000  plane waves:    5086
 k-point  15 :   0.1250 0.2500 0.0000  plane waves:    5086
 k-point  16 :   0.3750 0.1250 0.0000  plane waves:    5116
 k-point  17 :  -0.1250 0.3750-0.0000  plane waves:    5116
 k-point  18 :  -0.3750 0.1250 0.0000  plane waves:    5116
 k-point  19 :   0.1250 0.3750-0.0000  plane waves:    5116
 k-point  20 :   0.5000 0.1250 0.0000  plane waves:    5118
 k-point  21 :  -0.1250 0.5000-0.0000  plane waves:    5118
 k-point  22 :   0.2500 0.2500 0.0000  plane waves:    5110
 k-point  23 :  -0.2500 0.2500 0.0000  plane waves:    5110
 k-point  24 :   0.3750 0.2500 0.0000  plane waves:    5096
 k-point  25 :  -0.2500 0.3750-0.0000  plane waves:    5096
 k-point  26 :  -0.3750 0.2500 0.0000  plane waves:    5096
 k-point  27 :   0.2500 0.3750-0.0000  plane waves:    5096
 k-point  28 :   0.5000 0.2500 0.0000  plane waves:    5114
 k-point  29 :  -0.2500 0.5000-0.0000  plane waves:    5114
 k-point  30 :   0.3750 0.3750-0.0000  plane waves:    5108
 k-point  31 :  -0.3750 0.3750-0.0000  plane waves:    5108
 k-point  32 :   0.5000 0.3750-0.0000  plane waves:    5112
 k-point  33 :  -0.3750 0.5000-0.0000  plane waves:    5112
 k-point  34 :   0.5000 0.5000-0.0000  plane waves:    5108
 k-point  35 :   0.0000 0.0000 0.3333  plane waves:    5076
 k-point  36 :   0.1250-0.0000 0.3333  plane waves:    5077
 k-point  37 :  -0.0000 0.1250 0.3333  plane waves:    5077
 k-point  38 :  -0.1250-0.0000 0.3333  plane waves:    5077
 k-point  39 :  -0.0000-0.1250 0.3333  plane waves:    5077
 k-point  40 :   0.2500 0.0000 0.3333  plane waves:    5108
 k-point  41 :  -0.0000 0.2500 0.3333  plane waves:    5108
 k-point  42 :  -0.2500 0.0000 0.3333  plane waves:    5108
 k-point  43 :   0.0000-0.2500 0.3333  plane waves:    5108
 k-point  44 :   0.3750-0.0000 0.3333  plane waves:    5113
 k-point  45 :   0.0000 0.3750 0.3333  plane waves:    5113
 k-point  46 :  -0.3750 0.0000 0.3333  plane waves:    5113
 k-point  47 :   0.0000-0.3750 0.3333  plane waves:    5113
 k-point  48 :   0.5000 0.0000 0.3333  plane waves:    5106
 k-point  49 :  -0.0000 0.5000 0.3333  plane waves:    5106
 k-point  50 :   0.1250 0.1250 0.3333  plane waves:    5078
 k-point  51 :  -0.1250 0.1250 0.3333  plane waves:    5078
 k-point  52 :  -0.1250-0.1250 0.3333  plane waves:    5078
 k-point  53 :   0.1250-0.1250 0.3333  plane waves:    5078
 k-point  54 :   0.2500 0.1250 0.3333  plane waves:    5094
 k-point  55 :  -0.1250 0.2500 0.3333  plane waves:    5094
 k-point  56 :  -0.2500-0.1250 0.3333  plane waves:    5094
 k-point  57 :   0.1250-0.2500 0.3333  plane waves:    5094
 k-point  58 :  -0.2500 0.1250-0.3333  plane waves:    5094
 k-point  59 :   0.1250 0.2500-0.3333  plane waves:    5094
 k-point  60 :   0.2500-0.1250-0.3333  plane waves:    5094
 k-point  61 :  -0.1250-0.2500-0.3333  plane waves:    5094
 k-point  62 :   0.3750 0.1250 0.3333  plane waves:    5108
 k-point  63 :  -0.1250 0.3750 0.3333  plane waves:    5108
 k-point  64 :  -0.3750-0.1250 0.3333  plane waves:    5108
 k-point  65 :   0.1250-0.3750 0.3333  plane waves:    5108
 k-point  66 :  -0.3750 0.1250-0.3333  plane waves:    5108
 k-point  67 :   0.1250 0.3750-0.3333  plane waves:    5108
 k-point  68 :   0.3750-0.1250-0.3333  plane waves:    5108
 k-point  69 :  -0.1250-0.3750-0.3333  plane waves:    5108
 k-point  70 :   0.5000 0.1250 0.3333  plane waves:    5112
 k-point  71 :  -0.1250 0.5000 0.3333  plane waves:    5112
 k-point  72 :   0.5000-0.1250 0.3333  plane waves:    5112
 k-point  73 :   0.1250 0.5000 0.3333  plane waves:    5112
 k-point  74 :   0.2500 0.2500 0.3333  plane waves:    5099
 k-point  75 :  -0.2500 0.2500 0.3333  plane waves:    5099
 k-point  76 :  -0.2500-0.2500 0.3333  plane waves:    5099
 k-point  77 :   0.2500-0.2500 0.3333  plane waves:    5099
 k-point  78 :   0.3750 0.2500 0.3333  plane waves:    5095
 k-point  79 :  -0.2500 0.3750 0.3333  plane waves:    5095
 k-point  80 :  -0.3750-0.2500 0.3333  plane waves:    5095
 k-point  81 :   0.2500-0.3750 0.3333  plane waves:    5095
 k-point  82 :  -0.3750 0.2500-0.3333  plane waves:    5095
 k-point  83 :   0.2500 0.3750-0.3333  plane waves:    5095
 k-point  84 :   0.3750-0.2500-0.3333  plane waves:    5095
 k-point  85 :  -0.2500-0.3750-0.3333  plane waves:    5095
 k-point  86 :   0.5000 0.2500 0.3333  plane waves:    5090
 k-point  87 :  -0.2500 0.5000 0.3333  plane waves:    5090
 k-point  88 :   0.5000-0.2500 0.3333  plane waves:    5090
 k-point  89 :   0.2500 0.5000 0.3333  plane waves:    5090
 k-point  90 :   0.3750 0.3750 0.3333  plane waves:    5110
 k-point  91 :  -0.3750 0.3750 0.3333  plane waves:    5110
 k-point  92 :  -0.3750-0.3750 0.3333  plane waves:    5110
 k-point  93 :   0.3750-0.3750 0.3333  plane waves:    5110
 k-point  94 :   0.5000 0.3750 0.3333  plane waves:    5114
 k-point  95 :  -0.3750 0.5000 0.3333  plane waves:    5114
 k-point  96 :   0.5000-0.3750 0.3333  plane waves:    5114
 k-point  97 :   0.3750 0.5000 0.3333  plane waves:    5114
 k-point  98 :   0.5000 0.5000 0.3333  plane waves:    5136

 maximum and minimum number of plane-waves per node :      1303     1249

 maximum number of plane-waves:      5136
 maximum index in each direction: 
   IXMAX=    7   IYMAX=    7   IZMAX=   24
   IXMIN=   -7   IYMIN=   -7   IZMIN=  -24


 parallel 3D FFT for wavefunctions:
    minimum data exchange during FFTs selected (reduces bandwidth)
 parallel 3D FFT for charge:
    minimum data exchange during FFTs selected (reduces bandwidth)


 total amount of memory used by VASP MPI-rank0   107651. kBytes
=======================================================================

   base      :      30000. kBytes
   nonl-proj :      55074. kBytes
   fftplans  :       1092. kBytes
   grid      :       4533. kBytes
   one-center:         93. kBytes
   wavefun   :      16859. kBytes
 
     INWAV:  cpu time    0.0001: real time    0.0001
 Broyden mixing: mesh for mixing (old mesh)
   NGX = 15   NGY = 15   NGZ = 47
  (NGX  = 60   NGY  = 60   NGZ  =192)
  gives a total of  10575 points

 initial charge density was supplied:
 charge density of overlapping atoms calculated
 number of electron      84.0000000 magnetization       0.6000000
 keeping initial charge density in first step


--------------------------------------------------------------------------------------------------------


 Maximum index for augmentation-charges         1050 (set IRDMAX)


--------------------------------------------------------------------------------------------------------


 First call to EWALD:  gamma=   0.309
 Maximum number of real-space cells 4x 4x 2
 Maximum number of reciprocal cells 2x 2x 6

    FEWALD:  cpu time    0.0015: real time    0.0017


--------------------------------------- Iteration      1(   1)  ---------------------------------------


    POTLOK:  cpu time    0.0396: real time    0.0816
    SETDIJ:  cpu time    0.9088: real time    0.9091
     EDDAV:  cpu time    9.6361: real time    9.6412
       DOS:  cpu time    0.0041: real time    0.0041
    --------------------------------------------
      LOOP:  cpu time   10.5886: real time   10.6361

 eigenvalue-minimisations  : 25088
 total energy-change (2. order) : 0.5390213E+03  (-0.4084846E+04)
 number of electron      84.0000000 magnetization       0.6000000
 augmentation part       84.0000000 magnetization       0.6000000

 Free energy of the ion-electron system (eV)
  ---------------------------------------------------
  alpha Z        PSCENC =       487.77386565
  Ewald energy   TEWEN  =     -5605.53874549
  -Hartree energ DENC   =     -2138.94024760
  -exchange      EXHF   =         0.00000000
  -V(xc)+E(xc)   XCENC  =       389.55629131
  PAW double counting   =      6184.04713378    -6608.31218866
  entropy T*S    EENTRO =        -0.00272162
  eigenvalues    EBANDS =       -97.49311472
  atomic energy  EATOM  =      7927.93097991
  Solvation  Ediel_sol  =         0.00000000
  ---------------------------------------------------
  free energy    TOTEN  =       539.02125256 eV

  energy without entropy =      539.02397418  energy(sigma->0) =      539.02261337


--------------------------------------------------------------------------------------------------------




--------------------------------------- Iteration      1(   2)  ---------------------------------------


     EDDAV:  cpu time    9.9296: real time    9.9340
       DOS:  cpu time    0.0017: real time    0.0017
    --------------------------------------------
      LOOP:  cpu time    9.9313: real time    9.9357

 eigenvalue-minimisations  : 26128
 total energy-change (2. order) :-0.6576118E+03  (-0.6165440E+03)
 number of electron      84.0000000 magnetization       0.6000000
 augmentation part       84.0000000 magnetization       0.6000000

 Free energy of the ion-electron system (eV)
  ---------------------------------------------------
  alpha Z        PSCENC =       487.77386565
  Ewald energy   TEWEN  =     -5605.53874549
  -Hartree energ DENC   =     -2138.94024760
  -exchange      EXHF   =         0.00000000
  -V(xc)+E(xc)   XCENC  =       389.55629131
  PAW double counting   =      6184.04713378    -6608.31218866
  entropy T*S    EENTRO =        -0.00000000
  eigenvalues    EBANDS =      -755.10759688
  atomic energy  EATOM  =      7927.93097991
  Solvation  Ediel_sol  =         0.00000000
  ---------------------------------------------------
  free energy    TOTEN  =      -118.59050798 eV

  energy without entropy =     -118.59050798  energy(sigma->0) =     -118.59050798


--------------------------------------------------------------------------------------------------------




--------------------------------------- Iteration      1(   3)  ---------------------------------------


     EDDAV:  cpu time   12.7301: real time   12.7328
       DOS:  cpu time    0.0016: real time    0.0016
    --------------------------------------------
      LOOP:  cpu time   12.7317: real time   12.7344

 eigenvalue-minimisations  : 37056
 total energy-change (2. order) :-0.7729599E+02  (-0.7615868E+02)
 number of electron      84.0000000 magnetization       0.6000000
 augmentation part       84.0000000 magnetization       0.6000000

 Free energy of the ion-electron system (eV)
  ---------------------------------------------------
  alpha Z        PSCENC =       487.77386565
  Ewald energy   TEWEN  =     -5605.53874549
  -Hartree energ DENC   =     -2138.94024760
  -exchange      EXHF   =         0.00000000
  -V(xc)+E(xc)   XCENC  =       389.55629131
  PAW double counting   =      6184.04713378    -6608.31218866
  entropy T*S    EENTRO =        -0.00000000
  eigenvalues    EBANDS =      -832.40359114
  atomic energy  EATOM  =      7927.93097991
  Solvation  Ediel_sol  =         0.00000000
  ---------------------------------------------------
  free energy    TOTEN  =      -195.88650225 eV

  energy without entropy =     -195.88650225  energy(sigma->0) =     -195.88650225


--------------------------------------------------------------------------------------------------------




--------------------------------------- Iteration      1(   4)  ---------------------------------------


     EDDAV:  cpu time   13.7512: real time   13.7881
       DOS:  cpu time    0.0018: real time    0.0018
    --------------------------------------------
      LOOP:  cpu time   13.7529: real time   13.7899

 eigenvalue-minimisations  : 41168
 total energy-change (2. order) :-0.3933179E+01  (-0.3888159E+01)
 number of electron      84.0000000 magnetization       0.6000000
 augmentation part       84.0000000 magnetization       0.6000000

 Free energy of the ion-electron system (eV)
  ---------------------------------------------------
  alpha Z        PSCENC =       487.77386565
  Ewald energy   TEWEN  =     -5605.53874549
  -Hartree energ DENC   =     -2138.94024760
  -exchange      EXHF   =         0.00000000
  -V(xc)+E(xc)   XCENC  =       389.55629131
  PAW double counting   =      6184.04713378    -6608.31218866
  entropy T*S    EENTRO =        -0.00000000
  eigenvalues    EBANDS =      -836.33677003
  atomic energy  EATOM  =      7927.93097991
  Solvation  Ediel_sol  =         0.00000000
  ---------------------------------------------------
  free energy    TOTEN  =      -199.81968113 eV

  energy without entropy =     -199.81968113  energy(sigma->0) =     -199.81968113


--------------------------------------------------------------------------------------------------------




--------------------------------------- Iteration      1(   5)  ---------------------------------------


     EDDAV:  cpu time   11.6514: real time   11.6596
       DOS:  cpu time    0.0018: real time    0.0018
    CHARGE:  cpu time    0.9979: real time    0.9981
    MIXING:  cpu time    0.0029: real time    0.0031
    --------------------------------------------
      LOOP:  cpu time   12.6540: real time   12.6625

 eigenvalue-minimisations  : 33616
 total energy-change (2. order) :-0.6545981E-01  (-0.6544932E-01)
 number of electron      83.9999983 magnetization       0.4129216
 augmentation part       17.7281394 magnetization       0.4397735

 Broyden mixing:
  rms(total) = 0.35359E+01    rms(broyden)= 0.35358E+01
  rms(prec ) = 0.39001E+01
  weight for this iteration     100.00

 Free energy of the ion-electron system (eV)
  ---------------------------------------------------
  alpha Z        PSCENC =       487.77386565
  Ewald energy   TEWEN  =     -5605.53874549
  -Hartree energ DENC   =     -2138.94024760
  -exchange      EXHF   =         0.00000000
  -V(xc)+E(xc)   XCENC  =       389.55629131
  PAW double counting   =      6184.04713378    -6608.31218866
  entropy T*S    EENTRO =        -0.00000000
  eigenvalues    EBANDS =      -836.40222984
  atomic energy  EATOM  =      7927.93097991
  Solvation  Ediel_sol  =         0.00000000
  ---------------------------------------------------
  free energy    TOTEN  =      -199.88514094 eV

  energy without entropy =     -199.88514094  energy(sigma->0) =     -199.88514094


--------------------------------------------------------------------------------------------------------




--------------------------------------- Iteration      1(   6)  ---------------------------------------


    POTLOK:  cpu time    0.0367: real time    0.0367
    SETDIJ:  cpu time    0.8982: real time    0.8982
     EDDAV:  cpu time   13.9244: real time   13.9326
       DOS:  cpu time    0.0018: real time    0.0018
    CHARGE:  cpu time    1.0046: real time    1.0048
    MIXING:  cpu time    0.0010: real time    0.0010
    --------------------------------------------
      LOOP:  cpu time   15.8666: real time   15.8751

 eigenvalue-minimisations  : 42240
 total energy-change (2. order) : 0.4064971E+02  (-0.4452831E+01)
 number of electron      83.9999981 magnetization       0.2888284
 augmentation part       19.0306318 magnetization       0.2792526

 Broyden mixing:
  rms(total) = 0.29097E+01    rms(broyden)= 0.29096E+01
  rms(prec ) = 0.29264E+01
  weight for this iteration     100.00

 eigenvalues of (default mixing * dielectric matrix)
  average eigenvalue GAMMA=   0.9387
  0.9387

 Free energy of the ion-electron system (eV)
  ---------------------------------------------------
  alpha Z        PSCENC =       487.77386565
  Ewald energy   TEWEN  =     -5605.53874549
  -Hartree energ DENC   =     -2153.72337816
  -exchange      EXHF   =         0.00000000
  -V(xc)+E(xc)   XCENC  =       408.54204579
  PAW double counting   =      7788.05796224    -8204.63278107
  entropy T*S    EENTRO =        -0.00000000
  eigenvalues    EBANDS =      -807.64537796
  atomic energy  EATOM  =      7927.93097991
  Solvation  Ediel_sol  =         0.00000000
  ---------------------------------------------------
  free energy    TOTEN  =      -159.23542909 eV

  energy without entropy =     -159.23542909  energy(sigma->0) =     -159.23542909


--------------------------------------------------------------------------------------------------------




--------------------------------------- Iteration      1(   7)  ---------------------------------------


    POTLOK:  cpu time    0.0370: real time    0.0769
    SETDIJ:  cpu time    0.9007: real time    0.9008
     EDDAV:  cpu time   11.6339: real time   11.6350
       DOS:  cpu time    0.0018: real time    0.0018
    CHARGE:  cpu time    1.0025: real time    1.0026
    MIXING:  cpu time    0.0005: real time    0.0005
    --------------------------------------------
      LOOP:  cpu time   13.5764: real time   13.6175

 eigenvalue-minimisations  : 33440
 total energy-change (2. order) :-0.1584631E+01  (-0.1594838E+01)
 number of electron      83.9999981 magnetization       0.1200778
 augmentation part       18.6719144 magnetization       0.1077528

 Broyden mixing:
  rms(total) = 0.19927E+01    rms(broyden)= 0.19927E+01
  rms(prec ) = 0.20131E+01
  weight for this iteration     100.00

 eigenvalues of (default mixing * dielectric matrix)
  average eigenvalue GAMMA=   1.4813
  1.1289  1.8336

 Free energy of the ion-electron system (eV)
  ---------------------------------------------------
  alpha Z        PSCENC =       487.77386565
  Ewald energy   TEWEN  =     -5605.53874549
  -Hartree energ DENC   =     -2165.27893853
  -exchange      EXHF   =         0.00000000
  -V(xc)+E(xc)   XCENC  =       407.26245419
  PAW double counting   =      8954.83699121    -9391.30656236
  entropy T*S    EENTRO =        -0.00000000
  eigenvalues    EBANDS =      -776.50010508
  atomic energy  EATOM  =      7927.93097991
  Solvation  Ediel_sol  =         0.00000000
  ---------------------------------------------------
  free energy    TOTEN  =      -160.82006050 eV

  energy without entropy =     -160.82006050  energy(sigma->0) =     -160.82006050


--------------------------------------------------------------------------------------------------------




--------------------------------------- Iteration      1(   8)  ---------------------------------------


    POTLOK:  cpu time    0.0359: real time    0.0359
    SETDIJ:  cpu time    0.8974: real time    0.8975
     EDDAV:  cpu time   11.6399: real time   11.6409
       DOS:  cpu time    0.0016: real time    0.0016
    CHARGE:  cpu time    1.0206: real time    1.0207
    MIXING:  cpu time    0.0006: real time    0.0006
    --------------------------------------------
      LOOP:  cpu time   13.5960: real time   13.5973

 eigenvalue-minimisations  : 33568
 total energy-change (2. order) :-0.2703480E+00  (-0.4458965E+00)
 number of electron      83.9999982 magnetization       0.0660387
 augmentation part       18.9737046 magnetization       0.0612746

 Broyden mixing:
  rms(total) = 0.45094E+00    rms(broyden)= 0.45090E+00
  rms(prec ) = 0.53833E+00
  weight for this iteration     100.00

 eigenvalues of (default mixing * dielectric matrix)
  average eigenvalue GAMMA=   1.3087
  2.2056  0.8603  0.8603

 Free energy of the ion-electron system (eV)
  ---------------------------------------------------
  alpha Z        PSCENC =       487.77386565
  Ewald energy   TEWEN  =     -5605.53874549
  -Hartree energ DENC   =     -2133.66788638
  -exchange      EXHF   =         0.00000000
  -V(xc)+E(xc)   XCENC  =       404.92943102
  PAW double counting   =     10660.76477043   -11103.96645966
  entropy T*S    EENTRO =        -0.00000000
  eigenvalues    EBANDS =      -799.31636403
  atomic energy  EATOM  =      7927.93097991
  Solvation  Ediel_sol  =         0.00000000
  ---------------------------------------------------
  free energy    TOTEN  =      -161.09040854 eV

  energy without entropy =     -161.09040854  energy(sigma->0) =     -161.09040854


--------------------------------------------------------------------------------------------------------




--------------------------------------- Iteration      1(   9)  ---------------------------------------


    POTLOK:  cpu time    0.0356: real time    0.0356
    SETDIJ:  cpu time    0.9028: real time    0.9029
     EDDAV:  cpu time   11.5612: real time   11.5622
       DOS:  cpu time    0.0016: real time    0.0016
    CHARGE:  cpu time    1.0062: real time    1.0063
    MIXING:  cpu time    0.0007: real time    0.0006
    --------------------------------------------
      LOOP:  cpu time   13.5081: real time   13.5093

 eigenvalue-minimisations  : 33344
 total energy-change (2. order) : 0.3592397E+00  (-0.1329548E+00)
 number of electron      83.9999982 magnetization       0.0469184
 augmentation part       18.8108408 magnetization       0.0397155

 Broyden mixing:
  rms(total) = 0.14782E+00    rms(broyden)= 0.14781E+00
  rms(prec ) = 0.15743E+00
  weight for this iteration     100.00

 eigenvalues of (default mixing * dielectric matrix)
  average eigenvalue GAMMA=   1.1444
  2.2994  0.8660  0.8660  0.5463

 Free energy of the ion-electron system (eV)
  ---------------------------------------------------
  alpha Z        PSCENC =       487.77386565
  Ewald energy   TEWEN  =     -5605.53874549
  -Hartree energ DENC   =     -2146.79874736
  -exchange      EXHF   =         0.00000000
  -V(xc)+E(xc)   XCENC  =       406.44908033
  PAW double counting   =     10912.77691860   -11362.02407224
  entropy T*S    EENTRO =        -0.00000000
  eigenvalues    EBANDS =      -781.30044828
  atomic energy  EATOM  =      7927.93097991
  Solvation  Ediel_sol  =         0.00000000
  ---------------------------------------------------
  free energy    TOTEN  =      -160.73116888 eV

  energy without entropy =     -160.73116888  energy(sigma->0) =     -160.73116888


--------------------------------------------------------------------------------------------------------




--------------------------------------- Iteration      1(  10)  ---------------------------------------


    POTLOK:  cpu time    0.0387: real time    0.0855
    SETDIJ:  cpu time    0.8994: real time    0.8995
     EDDAV:  cpu time   11.2209: real time   11.2220
       DOS:  cpu time    0.0020: real time    0.0020
    CHARGE:  cpu time    1.0118: real time    1.0119
    MIXING:  cpu time    0.0006: real time    0.0006
    --------------------------------------------
      LOOP:  cpu time   13.1734: real time   13.2215

 eigenvalue-minimisations  : 31200
 total energy-change (2. order) : 0.4540181E-02  (-0.1265252E-01)
 number of electron      83.9999981 magnetization       0.0299205
 augmentation part       18.8108730 magnetization       0.0240638

 Broyden mixing:
  rms(total) = 0.94653E-01    rms(broyden)= 0.94647E-01
  rms(prec ) = 0.96905E-01
  weight for this iteration     100.00

 eigenvalues of (default mixing * dielectric matrix)
  average eigenvalue GAMMA=   1.1261
  2.4492  0.9836  0.8436  0.8436  0.5103

 Free energy of the ion-electron system (eV)
  ---------------------------------------------------
  alpha Z        PSCENC =       487.77386565
  Ewald energy   TEWEN  =     -5605.53874549
  -Hartree energ DENC   =     -2147.15209286
  -exchange      EXHF   =         0.00000000
  -V(xc)+E(xc)   XCENC  =       406.14515020
  PAW double counting   =     10961.47078239   -11411.18520161
  entropy T*S    EENTRO =        -0.00000000
  eigenvalues    EBANDS =      -780.17136689
  atomic energy  EATOM  =      7927.93097991
  Solvation  Ediel_sol  =         0.00000000
  ---------------------------------------------------
  free energy    TOTEN  =      -160.72662870 eV

  energy without entropy =     -160.72662870  energy(sigma->0) =     -160.72662870


--------------------------------------------------------------------------------------------------------




--------------------------------------- Iteration      1(  11)  ---------------------------------------


    POTLOK:  cpu time    0.0354: real time    0.0354
    SETDIJ:  cpu time    0.8983: real time    0.8984
     EDDAV:  cpu time   11.9630: real time   11.9696
       DOS:  cpu time    0.0016: real time    0.0016
    CHARGE:  cpu time    1.0152: real time    1.0153
    MIXING:  cpu time    0.0006: real time    0.0006
    --------------------------------------------
      LOOP:  cpu time   13.9142: real time   13.9210

 eigenvalue-minimisations  : 34288
 total energy-change (2. order) :-0.2174793E-02  (-0.8033157E-03)
 number of electron      83.9999981 magnetization       0.0120767
 augmentation part       18.8161419 magnetization       0.0084398

 Broyden mixing:
  rms(total) = 0.50450E-01    rms(broyden)= 0.50449E-01
  rms(prec ) = 0.51699E-01
  weight for this iteration     100.00

 eigenvalues of (default mixing * dielectric matrix)
  average eigenvalue GAMMA=   1.2089
  2.5971  1.5911  0.9125  0.9125  0.7685  0.4715

 Free energy of the ion-electron system (eV)
  ---------------------------------------------------
  alpha Z        PSCENC =       487.77386565
  Ewald energy   TEWEN  =     -5605.53874549
  -Hartree energ DENC   =     -2146.65263792
  -exchange      EXHF   =         0.00000000
  -V(xc)+E(xc)   XCENC  =       406.09509855
  PAW double counting   =     10987.82815918   -11437.84082588
  entropy T*S    EENTRO =        -0.00000000
  eigenvalues    EBANDS =      -780.32469749
  atomic energy  EATOM  =      7927.93097991
  Solvation  Ediel_sol  =         0.00000000
  ---------------------------------------------------
  free energy    TOTEN  =      -160.72880349 eV

  energy without entropy =     -160.72880349  energy(sigma->0) =     -160.72880349


--------------------------------------------------------------------------------------------------------




--------------------------------------- Iteration      1(  12)  ---------------------------------------


    POTLOK:  cpu time    0.0358: real time    0.0358
    SETDIJ:  cpu time    0.8971: real time    0.8972
     EDDAV:  cpu time   11.2803: real time   11.2813
       DOS:  cpu time    0.0017: real time    0.0017
    CHARGE:  cpu time    1.0065: real time    1.0066
    MIXING:  cpu time    0.0006: real time    0.0006
    --------------------------------------------
      LOOP:  cpu time   13.2219: real time   13.2231

 eigenvalue-minimisations  : 31456
 total energy-change (2. order) :-0.1483827E-02  (-0.3418703E-03)
 number of electron      83.9999981 magnetization       0.0049041
 augmentation part       18.8199588 magnetization       0.0036847

 Broyden mixing:
  rms(total) = 0.22545E-01    rms(broyden)= 0.22545E-01
  rms(prec ) = 0.23530E-01
  weight for this iteration     100.00

 eigenvalues of (default mixing * dielectric matrix)
  average eigenvalue GAMMA=   1.2436
  2.7067  2.1082  0.8879  0.8879  0.9186  0.7352  0.4605

 Free energy of the ion-electron system (eV)
  ---------------------------------------------------
  alpha Z        PSCENC =       487.77386565
  Ewald energy   TEWEN  =     -5605.53874549
  -Hartree energ DENC   =     -2146.45315994
  -exchange      EXHF   =         0.00000000
  -V(xc)+E(xc)   XCENC  =       406.12797188
  PAW double counting   =     10968.19838808   -11418.44033967
  entropy T*S    EENTRO =        -0.00000000
  eigenvalues    EBANDS =      -780.32924774
  atomic energy  EATOM  =      7927.93097991
  Solvation  Ediel_sol  =         0.00000000
  ---------------------------------------------------
  free energy    TOTEN  =      -160.73028732 eV

  energy without entropy =     -160.73028732  energy(sigma->0) =     -160.73028732


--------------------------------------------------------------------------------------------------------




--------------------------------------- Iteration      1(  13)  ---------------------------------------


    POTLOK:  cpu time    0.0373: real time    0.0688
    SETDIJ:  cpu time    0.8987: real time    0.8988
     EDDAV:  cpu time   10.9782: real time   10.9792
       DOS:  cpu time    0.0022: real time    0.0022
    CHARGE:  cpu time    1.0126: real time    1.0127
    MIXING:  cpu time    0.0006: real time    0.0006
    --------------------------------------------
      LOOP:  cpu time   12.9295: real time   12.9621

 eigenvalue-minimisations  : 30432
 total energy-change (2. order) :-0.3094219E-03  (-0.1139466E-03)
 number of electron      83.9999981 magnetization       0.0028007
 augmentation part       18.8170704 magnetization       0.0023108

 Broyden mixing:
  rms(total) = 0.74725E-02    rms(broyden)= 0.74721E-02
  rms(prec ) = 0.76042E-02
  weight for this iteration     100.00

 eigenvalues of (default mixing * dielectric matrix)
  average eigenvalue GAMMA=   1.2474
  2.6583  2.4423  1.2322  0.8786  0.8786  0.7917  0.6376  0.4598

 Free energy of the ion-electron system (eV)
  ---------------------------------------------------
  alpha Z        PSCENC =       487.77386565
  Ewald energy   TEWEN  =     -5605.53874549
  -Hartree energ DENC   =     -2146.89546309
  -exchange      EXHF   =         0.00000000
  -V(xc)+E(xc)   XCENC  =       406.18642637
  PAW double counting   =     10936.14364789   -11386.37812973
  entropy T*S    EENTRO =        -0.00000000
  eigenvalues    EBANDS =      -779.95317826
  atomic energy  EATOM  =      7927.93097991
  Solvation  Ediel_sol  =         0.00000000
  ---------------------------------------------------
  free energy    TOTEN  =      -160.73059674 eV

  energy without entropy =     -160.73059674  energy(sigma->0) =     -160.73059674


--------------------------------------------------------------------------------------------------------




--------------------------------------- Iteration      1(  14)  ---------------------------------------


    POTLOK:  cpu time    0.0368: real time    0.0368
    SETDIJ:  cpu time    0.9108: real time    0.9109
     EDDAV:  cpu time   11.9831: real time   11.9843
       DOS:  cpu time    0.0017: real time    0.0017
    CHARGE:  cpu time    0.9911: real time    0.9912
    MIXING:  cpu time    0.0007: real time    0.0007
    --------------------------------------------
      LOOP:  cpu time   13.9241: real time   13.9255

 eigenvalue-minimisations  : 31136
[...]
     53       8.6323      0.00000
     54       8.6327      0.00000
     55       9.9757      0.00000
     56       9.9759      0.00000
     57      10.5369      0.00000
     58      10.5370      0.00000
     59      10.7363      0.00000
     60      10.7366      0.00000
     61      10.9405      0.00000
     62      10.9405      0.00000
     63      11.4439      0.00000
     64      11.4441      0.00000

 k-point    98 :       0.5000    0.5000    0.3333
  band No.  band energies     occupation 
      1     -33.0062      1.00000
      2     -32.9954      1.00000
      3     -32.9834      1.00000
      4     -32.9727      1.00000
      5     -14.7146      1.00000
      6     -14.7146      1.00000
      7     -14.7016      1.00000
      8     -14.6996      1.00000
      9     -14.6906      1.00000
     10     -14.6906      1.00000
     11     -14.6068      1.00000
     12     -14.6049      1.00000
     13     -14.3645      1.00000
     14     -14.3645      1.00000
     15     -14.3403      1.00000
     16     -14.3403      1.00000
     17     -11.3648      1.00000
     18     -11.3619      1.00000
     19     -10.6881      1.00000
     20     -10.6855      1.00000
     21      -4.7680      1.00000
     22      -4.7679      1.00000
     23      -4.7634      1.00000
     24      -4.7634      1.00000
     25      -4.6709      1.00000
     26      -4.6691      1.00000
     27      -4.5328      1.00000
     28      -4.5324      1.00000
     29      -4.5318      1.00000
     30      -4.5314      1.00000
     31      -0.5166      1.00000
     32      -0.5165      1.00000
     33       0.4838      1.00000
     34       0.4838      1.00000
     35       0.5636      1.00000
     36       0.5636      1.00000
     37       0.5935      1.00000
     38       0.5940      1.00000
     39       1.7315      1.00000
     40       1.7315      1.00000
     41       1.8105      1.00000
     42       1.8105      1.00000
     43       3.8324      0.00000
     44       3.8324      0.00000
     45       4.5761      0.00000
     46       4.5761      0.00000
     47       6.1808      0.00000
     48       6.1809      0.00000
     49       6.8361      0.00000
     50       6.8361      0.00000
     51       8.0750      0.00000
     52       8.0750      0.00000
     53       8.1705      0.00000
     54       8.1713      0.00000
     55       9.9040      0.00000
     56       9.9042      0.00000
     57      10.5275      0.00000
     58      10.5277      0.00000
     59      10.9363      0.00000
     60      10.9363      0.00000
     61      11.4845      0.00000
     62      11.4891      0.00000
     63      11.5495      0.00000
     64      11.5643      0.00000


--------------------------------------------------------------------------------------------------------


 soft charge-density along one line, spin component           1
         0         1         2         3         4         5         6         7         8         9
 total charge-density along one line
 
 soft charge-density along one line, spin component           2
         0         1         2         3         4         5         6         7         8         9
 total charge-density along one line
 
 pseudopotential strength for first ion, spin component:           1
-10.652  -3.993   0.000   0.004  -0.000   0.000   0.003  -0.000
 -3.993  -1.073  -0.000  -0.013   0.000  -0.000  -0.012   0.000
  0.000  -0.000 -15.461   0.000  -0.000 -15.168   0.000  -0.000
  0.004  -0.013   0.000 -15.486  -0.000   0.000 -15.194  -0.000
 -0.000   0.000  -0.000  -0.000 -15.461  -0.000  -0.000 -15.168
  0.000  -0.000 -15.168   0.000  -0.000 -14.880   0.000  -0.000
  0.003  -0.012   0.000 -15.194  -0.000   0.000 -14.905  -0.000
 -0.000   0.000  -0.000  -0.000 -15.168  -0.000  -0.000 -14.880
 -0.000  -0.000   0.000  -0.000   0.000   0.000  -0.000   0.000
  0.000   0.000   0.002   0.000  -0.000   0.002   0.000  -0.000
 -0.007  -0.004   0.000  -0.007   0.000   0.000  -0.007   0.000
 -0.000   0.000  -0.000   0.000   0.002  -0.000   0.000   0.002
 -0.000   0.000   0.000   0.000  -0.000   0.000   0.000  -0.000
 -0.000  -0.000   0.000  -0.000   0.000   0.000  -0.000   0.000
  0.000   0.000   0.003   0.000  -0.000   0.003   0.000  -0.000
 -0.011  -0.007   0.000  -0.012   0.000  -0.000  -0.011   0.000
 -0.000   0.000  -0.000   0.000   0.003  -0.000   0.000   0.003
 -0.000   0.000   0.000   0.000  -0.000   0.000   0.000  -0.000
 pseudopotential strength for first ion, spin component:           2
-10.652  -3.993  -0.000   0.004  -0.000  -0.000   0.003  -0.000
 -3.993  -1.073   0.000  -0.013   0.000   0.000  -0.012   0.000
 -0.000   0.000 -15.461  -0.000   0.000 -15.168  -0.000   0.000
  0.004  -0.013  -0.000 -15.486  -0.000  -0.000 -15.194  -0.000
 -0.000   0.000   0.000  -0.000 -15.461   0.000  -0.000 -15.168
 -0.000   0.000 -15.168  -0.000   0.000 -14.880  -0.000   0.000
  0.003  -0.012  -0.000 -15.194  -0.000  -0.000 -14.905  -0.000
 -0.000   0.000   0.000  -0.000 -15.168   0.000  -0.000 -14.880
  0.000   0.000   0.000   0.000  -0.000   0.000   0.000  -0.000
 -0.000  -0.000   0.002  -0.000   0.000   0.002  -0.000   0.000
 -0.007  -0.004   0.000  -0.007   0.000   0.000  -0.007   0.000
 -0.000   0.000   0.000   0.000   0.002   0.000   0.000   0.002
  0.000  -0.000  -0.000  -0.000  -0.000  -0.000  -0.000  -0.000
  0.000   0.000   0.000   0.000  -0.000   0.000   0.000  -0.000
 -0.000  -0.000   0.003  -0.000   0.000   0.003  -0.000   0.000
 -0.011  -0.007   0.000  -0.012   0.000   0.000  -0.011   0.000
 -0.000   0.000   0.000   0.000   0.003   0.000   0.000   0.003
  0.000  -0.000  -0.000  -0.000  -0.000  -0.000  -0.000  -0.000
 total augmentation occupancy for first ion, spin component:           1
  2.005   0.015   0.000  -0.170  -0.000  -0.000   0.173   0.000  -0.000   0.000   0.001  -0.000   0.000   0.000   0.000   0.006
  0.015   0.562   0.000   0.377  -0.000  -0.000  -0.334   0.000   0.000  -0.000  -0.062  -0.000   0.000  -0.000   0.000   0.025
  0.000   0.000  11.017  -0.000  -0.000  -9.609   0.000   0.000   0.000  -0.594  -0.000   0.000   0.000  -0.000   0.330   0.000
 -0.170   0.377  -0.000   7.126  -0.001   0.000  -6.206   0.001   0.000   0.000   4.126  -0.002   0.000   0.000  -0.000  -2.225
 -0.000  -0.000  -0.000  -0.001  11.017   0.000   0.001  -9.609   0.000   0.000  -0.001  -0.594   0.000  -0.000  -0.000   0.001
 -0.000  -0.000  -9.609   0.000   0.000  10.252  -0.000  -0.000  -0.000   0.533   0.000  -0.000  -0.000   0.000  -0.292  -0.000
  0.173  -0.334   0.000  -6.206   0.001  -0.000   7.332  -0.001  -0.000  -0.000  -3.866   0.002  -0.000   0.000   0.000   2.100
  0.000   0.000   0.000   0.001  -9.609  -0.000  -0.001  10.252  -0.000  -0.000   0.001   0.533  -0.000   0.000   0.000  -0.001
 -0.000   0.000   0.000   0.000   0.000  -0.000  -0.000  -0.000   6.634  -0.000   0.000  -0.000  -0.000  -3.556   0.000  -0.000
  0.000  -0.000  -0.594   0.000   0.000   0.533  -0.000  -0.000  -0.000   2.000  -0.000  -0.000   0.000   0.000  -1.066   0.000
  0.001  -0.062  -0.000   4.126  -0.001   0.000  -3.866   0.001   0.000  -0.000   5.509  -0.001  -0.000  -0.000   0.000  -2.990
 -0.000  -0.000   0.000  -0.002  -0.594  -0.000   0.002   0.533  -0.000  -0.000  -0.001   2.000  -0.000   0.000   0.000   0.001
  0.000   0.000   0.000   0.000   0.000  -0.000  -0.000  -0.000  -0.000   0.000  -0.000  -0.000   1.870  -0.000  -0.000   0.000
  0.000  -0.000  -0.000   0.000  -0.000   0.000   0.000   0.000  -3.556   0.000  -0.000   0.000  -0.000   1.911  -0.000   0.000
  0.000   0.000   0.330  -0.000  -0.000  -0.292   0.000   0.000   0.000  -1.066   0.000   0.000  -0.000  -0.000   0.569  -0.000
  0.006   0.025   0.000  -2.225   0.001  -0.000   2.100  -0.001  -0.000   0.000  -2.990   0.001   0.000   0.000  -0.000   1.626
  0.000   0.000  -0.000   0.001   0.330   0.000  -0.001  -0.292   0.000   0.000   0.001  -1.066   0.000  -0.000  -0.000  -0.000
 -0.000  -0.000  -0.000  -0.000  -0.000   0.000   0.000   0.000   0.000  -0.000   0.000   0.000  -0.983  -0.000   0.000  -0.000
 total augmentation occupancy for first ion, spin component:           2
  0.000   0.000   0.000  -0.000   0.000  -0.000   0.000  -0.000  -0.000  -0.000  -0.000   0.000   0.000   0.000   0.000   0.000
  0.000   0.000  -0.000  -0.000  -0.000   0.000   0.000   0.000  -0.000  -0.000   0.000  -0.000  -0.000   0.000   0.000  -0.000
  0.000  -0.000  -0.000  -0.000   0.000   0.000   0.000  -0.000   0.000  -0.000  -0.000  -0.000   0.000  -0.000   0.000   0.000
 -0.000  -0.000  -0.000   0.000  -0.000   0.000  -0.000   0.000  -0.000  -0.000   0.000  -0.000  -0.000   0.000   0.000   0.000
  0.000  -0.000   0.000  -0.000  -0.000  -0.000   0.000   0.000   0.000  -0.000  -0.000  -0.000  -0.000  -0.000   0.000   0.000
 -0.000   0.000   0.000   0.000  -0.000  -0.000  -0.000   0.000  -0.000   0.000   0.000   0.000  -0.000   0.000  -0.000  -0.000
  0.000   0.000   0.000  -0.000   0.000  -0.000   0.000  -0.000   0.000   0.000  -0.000   0.000   0.000  -0.000  -0.000  -0.000
 -0.000   0.000  -0.000   0.000   0.000   0.000  -0.000  -0.000  -0.000   0.000   0.000   0.000   0.000   0.000  -0.000  -0.000
 -0.000  -0.000   0.000  -0.000   0.000  -0.000   0.000  -0.000  -0.000   0.000   0.000  -0.000  -0.000   0.000  -0.000  -0.000
 -0.000  -0.000  -0.000  -0.000  -0.000   0.000   0.000   0.000   0.000   0.000  -0.000  -0.000   0.000  -0.000  -0.000   0.000
 -0.000   0.000  -0.000   0.000  -0.000   0.000  -0.000   0.000   0.000  -0.000  -0.000  -0.000   0.000   0.000   0.000   0.000
  0.000  -0.000  -0.000  -0.000  -0.000   0.000   0.000   0.000  -0.000  -0.000  -0.000   0.000  -0.000   0.000   0.000   0.000
  0.000  -0.000   0.000  -0.000  -0.000  -0.000   0.000   0.000  -0.000   0.000   0.000  -0.000   0.000  -0.000  -0.000  -0.000
  0.000   0.000  -0.000   0.000  -0.000   0.000  -0.000   0.000   0.000  -0.000   0.000   0.000  -0.000  -0.000   0.000  -0.000
  0.000   0.000   0.000   0.000   0.000  -0.000  -0.000  -0.000  -0.000  -0.000   0.000   0.000  -0.000   0.000   0.000  -0.000
  0.000  -0.000   0.000   0.000   0.000  -0.000  -0.000  -0.000  -0.000   0.000   0.000   0.000  -0.000  -0.000  -0.000  -0.000
 -0.000   0.000   0.000   0.000   0.000  -0.000  -0.000  -0.000   0.000   0.000   0.000  -0.000   0.000  -0.000  -0.000  -0.000
 -0.000   0.000  -0.000   0.000   0.000   0.000  -0.000  -0.000   0.000  -0.000  -0.000   0.000  -0.000   0.000   0.000   0.000


------------------------ aborting loop because EDIFF is reached ----------------------------------------


 


 total charge     
 
# of ion       s       p       d       tot
------------------------------------------
    1        2.017   5.843   0.233   8.094
    2        2.017   5.843   0.233   8.094
    3        2.017   5.843   0.233   8.094
    4        2.017   5.843   0.234   8.094
    5        0.698   0.646   9.753  11.096
    6        0.698   0.646   9.753  11.096
    7        1.259   2.393   0.000   3.651
    8        1.258   2.386   0.000   3.645
    9        1.258   2.389   0.000   3.648
   10        1.258   2.390   0.000   3.648
--------------------------------------------------
tot         14.498  34.223  20.439  69.159
 


 magnetization (x)
 
# of ion       s       p       d       tot
------------------------------------------
    1        0.000   0.000   0.000   0.000
    2        0.000   0.000   0.000   0.000
    3        0.000   0.000   0.000   0.000
    4        0.000   0.000   0.000   0.000
    5        0.000   0.000  -0.000   0.000
    6        0.000   0.000  -0.000   0.000
    7       -0.000  -0.000   0.000  -0.000
    8       -0.000  -0.000   0.000  -0.000
    9       -0.000  -0.000   0.000  -0.000
   10       -0.000  -0.000   0.000  -0.000
--------------------------------------------------
tot          0.000  -0.000   0.000  -0.000
 
    CHARGE:  cpu time    0.1193: real time    0.1193
    FORLOC:  cpu time    0.0006: real time    0.0006
    FORNL :  cpu time    0.6311: real time    0.6311
    STRESS:  cpu time   19.0571: real time   19.0595
    FORCOR:  cpu time    0.0323: real time    0.0324
    FORHAR:  cpu time    0.0024: real time    0.0026
    MIXING:  cpu time    0.0006: real time    0.0006
    OFIELD:  cpu time    0.0002: real time    0.0003

  FORCE on cell =-STRESS in cart. coord.  units (eV):
  Direction    XX          YY          ZZ          XY          YZ          ZX
  --------------------------------------------------------------------------------------
  Alpha Z   487.77387   487.77387   487.77387
  Ewald   -2222.52210 -2222.52187 -1160.50005    -0.00001    -0.00000    -0.01164
  Hartree   510.36116   510.36131  1126.21102    -0.00000    -0.00000    -0.00449
  E(xc)    -403.62896  -403.62884  -404.25977    -0.00000    -0.00000    -0.00015
  Local     717.02764   717.02706  -913.38311     0.00001     0.00001     0.01511
  n-local  -301.57662  -301.57615  -289.54447     0.00000     0.00000    -0.00140
  augment   115.37182   115.36804   111.03877     0.00000     0.00000     0.00882
  Kinetic  1097.11747  1097.11790  1042.51479    -0.00000     0.00000     0.00006
  Fock        0.00000     0.00000     0.00000     0.00000     0.00000     0.00000
  -------------------------------------------------------------------------------------
  Total      -0.07571    -0.07868    -0.14895    -0.00000    -0.00000     0.00631
  in kB      -0.64045    -0.66552    -1.25990    -0.00000    -0.00000     0.05339
  external pressure =       -0.86 kB  Pullay stress =        0.00 kB


 VOLUME and BASIS-vectors are now :
 -----------------------------------------------------------------------------
  energy-cutoff  :      520.00
  volume of cell :      189.41
      direct lattice vectors                 reciprocal lattice vectors
     3.851102821  0.000000006 -0.000000101     0.259665879 -0.000000000  0.000000007
     0.000000007  3.851102715 -0.000000006    -0.000000000  0.259665886  0.000000000
    -0.000000333 -0.000000021 12.771321364     0.000000002  0.000000000  0.078300434

  length of vectors
     3.851102821  3.851102715 12.771321364     0.259665879  0.259665886  0.078300434


 FORCES acting on ions
    electron-ion (+dipol)            ewald-force                    non-local-force                 convergence-correction
 -----------------------------------------------------------------------------------------------
   0.762E-02 -.243E-04 0.122E+01   -.612E-02 0.231E-04 -.359E+01   -.135E-02 0.149E-05 0.238E+01   -.376E-06 -.420E-07 -.104E-03
   0.744E-02 -.346E-05 -.346E+01   -.594E-02 0.366E-05 0.586E+01   -.134E-02 0.612E-08 -.239E+01   -.550E-06 -.606E-07 -.165E-03
   -.160E+00 -.374E-05 0.233E+01   0.160E+00 0.345E-05 -.470E+01   0.196E-02 0.411E-06 0.238E+01   0.104E-05 0.129E-06 0.136E-03
   -.164E+00 -.318E-04 -.234E+01   0.164E+00 0.310E-04 0.474E+01   0.199E-02 0.138E-05 -.240E+01   0.514E-06 -.101E-06 0.495E-04
   -.293E+00 0.104E-04 0.927E+01   0.271E+00 -.109E-04 -.970E+01   0.467E-01 0.122E-05 0.140E+00   -.826E-05 -.328E-06 0.351E-03
   -.247E-03 0.767E-05 -.128E+01   0.534E-03 -.802E-05 0.132E+01   -.174E-03 0.312E-07 -.324E-01   0.763E-07 0.496E-06 -.188E-03
   0.275E+00 0.214E-04 -.132E+03   -.300E+00 -.217E-04 0.142E+03   0.286E-01 0.534E-07 -.105E+02   -.534E-06 -.897E-07 0.178E-03
   0.264E+00 0.145E-05 0.127E+03   -.288E+00 -.160E-05 -.137E+03   0.278E-01 0.600E-07 0.104E+02   -.640E-07 0.122E-06 -.829E-04
   -.224E-02 0.561E-05 -.130E+03   0.188E-02 -.601E-05 0.140E+03   0.394E-03 0.483E-06 -.105E+02   0.385E-06 -.497E-07 0.965E-04
   -.229E-02 0.131E-04 0.129E+03   0.192E-02 -.131E-04 -.139E+03   0.401E-03 -.412E-06 0.104E+02   0.184E-06 0.111E-06 -.215E-03
 -----------------------------------------------------------------------------------------------
   -.752E-01 -.388E-05 0.914E-01   -.146E-13 -.197E-13 0.114E-12   0.105E+00 0.473E-05 -.556E-01   -.758E-05 0.187E-06 0.569E-04
 
 
 POSITION                                       TOTAL-FORCE (eV/Angst)
 -----------------------------------------------------------------------------------
     -0.00000      3.85110      4.36603        -0.002819      0.000000      0.012307
      0.00000     -0.00000      8.40529        -0.002815      0.000000      0.003304
      1.92555      1.92555     10.75169        -0.000553      0.000000      0.011899
      1.92555      1.92555      2.01963        -0.000461      0.000000      0.003009
      0.00289      0.00000      0.00958         0.013239      0.000000     -0.307605
      1.92555      1.92555      6.38566        -0.002850     -0.000000      0.003677
      3.85110      0.00000      1.82205         0.001003     -0.000000      0.151233
      3.85110      0.00000     10.94927         0.001132     -0.000000      0.155470
      1.92555      1.92555      8.20771        -0.002939     -0.000000     -0.022998
      1.92555      1.92555      4.56362        -0.002939     -0.000000     -0.010295
 -----------------------------------------------------------------------------------
    total drift:                                0.029735      0.000001      0.035935


--------------------------------------------------------------------------------------------------------



  FREE ENERGIE OF THE ION-ELECTRON SYSTEM (eV)
  ---------------------------------------------------
  free  energy   TOTEN  =      -160.73075397 eV

  energy  without entropy=     -160.73075397  energy(sigma->0) =     -160.73075397
 


--------------------------------------------------------------------------------------------------------


    POTLOK:  cpu time    0.9302: real time    0.9303


--------------------------------------------------------------------------------------------------------


     LOOP+:  cpu time  271.7693: real time  272.1155
    4ORBIT:  cpu time    0.0000: real time    0.0000
 


 total charge     
 
# of ion       s       p       d       tot
------------------------------------------
    1        2.017   5.843   0.233   8.094
    2        2.017   5.843   0.233   8.094
    3        2.017   5.843   0.233   8.094
    4        2.017   5.843   0.234   8.094
    5        0.698   0.646   9.753  11.096
    6        0.698   0.646   9.753  11.096
    7        1.259   2.393   0.000   3.651
    8        1.258   2.386   0.000   3.645
    9        1.258   2.389   0.000   3.648
   10        1.258   2.390   0.000   3.648
--------------------------------------------------
tot         14.498  34.223  20.439  69.159
 


 magnetization (x)
 
# of ion       s       p       d       tot
------------------------------------------
    1        0.000   0.000   0.000   0.000
    2        0.000   0.000   0.000   0.000
    3        0.000   0.000   0.000   0.000
    4        0.000   0.000   0.000   0.000
    5        0.000   0.000  -0.000   0.000
    6        0.000   0.000  -0.000   0.000
    7       -0.000  -0.000   0.000  -0.000
    8       -0.000  -0.000   0.000  -0.000
    9       -0.000  -0.000   0.000  -0.000
   10       -0.000  -0.000   0.000  -0.000
--------------------------------------------------
tot          0.000  -0.000   0.000  -0.000
 

 total amount of memory used by VASP MPI-rank0   107651. kBytes
=======================================================================

   base      :      30000. kBytes
   nonl-proj :      55074. kBytes
   fftplans  :       1092. kBytes
   grid      :       4533. kBytes
   one-center:         93. kBytes
   wavefun   :      16859. kBytes
 
  
  
 General timing and accounting informations for this job:
 ========================================================
  
                  Total CPU time used (sec):      280.838
                            User time (sec):      273.938
                          System time (sec):        6.900
                         Elapsed time (sec):      281.733
  
                   Maximum memory used (kb):      171508.
                   Average memory used (kb):           0.
  
                          Minor page faults:        47765
                          Major page faults:            0
                 Voluntary context switches:          638
