 vasp.6.1.2 22Jul20 (build Apr 14 2021 21:39:43) complex                        
  
 executed on             LinuxIFC date 2022.07.09  08:01:33
 running on   64 total cores
 distrk:  each k-point on   64 cores,    1 groups
 distr:  one band on NCORE=   4 cores,   16 groups


--------------------------------------------------------------------------------------------------------


 INCAR:
 POTCAR:    PAW_PBE Zn 06Sep2000                  
 POTCAR:    PAW_PBE Ca_sv 06Sep2000               
 POTCAR:    PAW_PBE N 08Apr2002                   
 POTCAR:    PAW_PBE Zn 06Sep2000                  
   SHA256 =  501fddbd8274dd8e9725d4f3de27861d7f1e553a7e18441bc79fed8f346e7f23 Zn/POTCAR             
   COPYR  = (c) Copyright 06Sep2000 Georg Kresse                                                    
   COPYR  = This file is part of the software VASP. Any use, copying, and all other rights are regul
   COPYR  = If you do not have a valid VASP license, you may not use, copy or distribute this file. 
   VRHFIN =Zn: d10 p2                                                                               
   LEXCH  = PE                                                                                      
   EATOM  =  1748.8345 eV,  128.5357 Ry                                                             
                                                                                                    
   TITEL  = PAW_PBE Zn 06Sep2000                                                                    
   LULTRA =        F    use ultrasoft PP ?                                                          
   IUNSCR =        1    unscreen: 0-lin 1-nonlin 2-no                                               
   RPACOR =    2.000    partial core radius                                                         
   POMASS =   65.390; ZVAL   =   12.000    mass and valenz                                          
   RCORE  =    2.300    outmost cutoff radius                                                       
   RWIGS  =    2.400; RWIGS  =    1.270    wigner-seitz radius (au A)                               
   ENMAX  =  276.723; ENMIN  =  207.542 eV                                                          
   RCLOC  =    1.828    cutoff for local pot                                                        
   LCOR   =        T    correct aug charges                                                         
   LPAW   =        T    paw PP                                                                      
   EAUG   =  575.892                                                                                
   DEXC   =    0.000                                                                                
   RMAX   =    2.347    core radius for proj-oper                                                   
   RAUG   =    1.300    factor for augmentation sphere                                              
   RDEP   =    2.324    radius for radial grids                                                     
   RDEPT  =    1.788    core radius for aug-charge                                                  
                                                                                                    
   Atomic configuration                                                                             
    9 entries                                                                                       
     n  l   j            E        occ.                                                              
     1  0  0.50     -9524.6913   2.0000                                                             
     2  0  0.50     -1158.1882   2.0000                                                             
     2  1  1.50     -1003.8506   6.0000                                                             
     3  0  0.50      -129.2194   2.0000                                                             
     3  1  1.50       -83.3890   6.0000                                                             
     3  2  2.50       -10.1410  10.0000                                                             
     4  0  0.50        -5.9785   2.0000                                                             
     4  1  0.50        -4.0817   0.0000                                                             
     4  3  2.50        -1.3606   0.0000                                                             
   Description                                                                                      
     l       E           TYP  RCUT    TYP  RCUT                                                     
     2    -10.1410010     23  2.300                                                                 
     2    -11.5015836     23  2.300                                                                 
     0     -5.9785163     23  2.300                                                                 
     0      1.1858015     23  2.300                                                                 
     1     -2.7211652     23  2.300                                                                 
     1     13.2444212     23  2.300                                                                 
  local pseudopotential read in
  partial core-charges read in
  partial kinetic energy density read in
  atomic valenz-charges read in
  non local Contribution for L=           2  read in
    real space projection operators read in
  non local Contribution for L=           2  read in
    real space projection operators read in
  non local Contribution for L=           0  read in
    real space projection operators read in
  non local Contribution for L=           0  read in
    real space projection operators read in
  non local Contribution for L=           1  read in
    real space projection operators read in
  non local Contribution for L=           1  read in
    real space projection operators read in
    PAW grid and wavefunctions read in
 
   number of l-projection  operators is LMAX  =           6
   number of lm-projection operators is LMMAX =          18
 
 POTCAR:    PAW_PBE Ca_sv 06Sep2000               
   SHA256 =  a47365830e737f14e0e6c5cf1ed81b94e081eecf0a33df105380881bc9da05d5 Ca_sv/POTCAR          
   COPYR  = (c) Copyright 06Sep2000 Georg Kresse                                                    
   COPYR  = This file is part of the software VASP. Any use, copying, and all other rights are regul
   COPYR  = If you do not have a valid VASP license, you may not use, copy or distribute this file. 
   VRHFIN =Ca: 3s3p4s                                                                               
   LEXCH  = PE                                                                                      
   EATOM  =  1006.0909 eV,   73.9456 Ry                                                             
                                                                                                    
   TITEL  = PAW_PBE Ca_sv 06Sep2000                                                                 
   LULTRA =        F    use ultrasoft PP ?                                                          
   IUNSCR =        1    unscreen: 0-lin 1-nonlin 2-no                                               
   RPACOR =    2.000    partial core radius                                                         
   POMASS =   40.078; ZVAL   =   10.000    mass and valenz                                          
   RCORE  =    2.300    outmost cutoff radius                                                       
   RWIGS  =    2.500; RWIGS  =    1.323    wigner-seitz radius (au A)                               
   ENMAX  =  266.622; ENMIN  =  199.967 eV                                                          
   RCLOC  =    1.808    cutoff for local pot                                                        
   LCOR   =        T    correct aug charges                                                         
   LPAW   =        T    paw PP                                                                      
   EAUG   =  420.852                                                                                
   RMAX   =    2.359    core radius for proj-oper                                                   
   RAUG   =    1.300    factor for augmentation sphere                                              
   RDEP   =    2.392    radius for radial grids                                                     
   RDEPT  =    1.987    core radius for aug-charge                                                  
                                                                                                    
   Atomic configuration                                                                             
    7 entries                                                                                       
     n  l   j            E        occ.                                                              
     1  0  0.50     -3949.1705   2.0000                                                             
     2  0  0.50      -414.3434   2.0000                                                             
     2  1  1.50      -334.7047   6.0000                                                             
     3  0  0.50       -47.0896   2.0000                                                             
     4  0  0.50        -3.7663   2.0000                                                             
     3  1  1.50       -28.0061   6.0000                                                             
     3  2  1.50        -4.0817   0.0000                                                             
   Description                                                                                      
     l       E           TYP  RCUT    TYP  RCUT                                                     
     0    -47.0896403     23  2.300                                                                 
     0     -3.7663320     23  2.300                                                                 
     1    -28.0060855     23  2.300                                                                 
     1      6.8029130     23  2.300                                                                 
     2     -4.0817478     23  2.300                                                                 
     2      0.4464412     23  2.300                                                                 
  local pseudopotential read in
  partial core-charges read in
  partial kinetic energy density read in
  atomic valenz-charges read in
  non local Contribution for L=           0  read in
    real space projection operators read in
  non local Contribution for L=           0  read in
    real space projection operators read in
  non local Contribution for L=           1  read in
    real space projection operators read in
  non local Contribution for L=           1  read in
    real space projection operators read in
  non local Contribution for L=           2  read in
    real space projection operators read in
  non local Contribution for L=           2  read in
    real space projection operators read in
    PAW grid and wavefunctions read in
 
   number of l-projection  operators is LMAX  =           6
   number of lm-projection operators is LMMAX =          18
 
 POTCAR:    PAW_PBE N 08Apr2002                   
   SHA256 =  e053789ff3a61a86a1b75d8a110fcc91f86041011e7b0817c7c99e4e8a6349d7 N/POTCAR              
   COPYR  = (c) Copyright 08Apr2002 Georg Kresse                                                    
   COPYR  = This file is part of the software VASP. Any use, copying, and all other rights are regul
   COPYR  = If you do not have a valid VASP license, you may not use, copy or distribute this file. 
   VRHFIN =N: s2p3                                                                                  
   LEXCH  = PE                                                                                      
   EATOM  =   264.5486 eV,   19.4438 Ry                                                             
                                                                                                    
   TITEL  = PAW_PBE N 08Apr2002                                                                     
   LULTRA =        F    use ultrasoft PP ?                                                          
   IUNSCR =        1    unscreen: 0-lin 1-nonlin 2-no                                               
   RPACOR =    1.200    partial core radius                                                         
   POMASS =   14.001; ZVAL   =    5.000    mass and valenz                                          
   RCORE  =    1.500    outmost cutoff radius                                                       
   RWIGS  =    1.400; RWIGS  =    0.741    wigner-seitz radius (au A)                               
   ENMAX  =  400.000; ENMIN  =  300.000 eV                                                          
   ICORE  =        2    local potential                                                             
   LCOR   =        T    correct aug charges                                                         
   LPAW   =        T    paw PP                                                                      
   EAUG   =  627.112                                                                                
   DEXC   =    0.000                                                                                
   RMAX   =    1.529    core radius for proj-oper                                                   
   RAUG   =    1.300    factor for augmentation sphere                                              
   RDEP   =    1.514    radius for radial grids                                                     
   RDEPT  =    1.338    core radius for aug-charge                                                  
                                                                                                    
   Atomic configuration                                                                             
    4 entries                                                                                       
     n  l   j            E        occ.                                                              
     1  0  0.50      -384.7179   2.0000                                                             
     2  0  0.50       -18.5828   2.0000                                                             
     2  1  0.50        -7.0898   3.0000                                                             
     3  2  1.50        -6.8029   0.0000                                                             
   Description                                                                                      
     l       E           TYP  RCUT    TYP  RCUT                                                     
     0    -18.5828119     23  1.200                                                                 
     0    -13.5018863     23  1.200                                                                 
     1     -7.0897853     23  1.500                                                                 
     1      9.5240782     23  1.500                                                                 
     2     -6.8029130      7  1.500                                                                 
  local pseudopotential read in
  partial core-charges read in
  partial kinetic energy density read in
  atomic valenz-charges read in
  non local Contribution for L=           0  read in
    real space projection operators read in
  non local Contribution for L=           0  read in
    real space projection operators read in
  non local Contribution for L=           1  read in
    real space projection operators read in
  non local Contribution for L=           1  read in
    real space projection operators read in
    PAW grid and wavefunctions read in
 
   number of l-projection  operators is LMAX  =           4
   number of lm-projection operators is LMMAX =           8
 
  PAW_PBE Zn 06Sep2000                  :
 energy of atom  1       EATOM=-1748.8345
 kinetic energy error for atom=    0.0029 (will be added to EATOM!!)
  PAW_PBE Ca_sv 06Sep2000               :
 energy of atom  2       EATOM=-1006.0909
 kinetic energy error for atom=    0.0022 (will be added to EATOM!!)
  PAW_PBE N 08Apr2002                   :
 energy of atom  3       EATOM= -264.5486
 kinetic energy error for atom=    0.0125 (will be added to EATOM!!)
 
 
 POSCAR: generated by phonopy
  positions in direct lattice
  No initial velocities read in

 METAGGA = SCAN     LMAXTAU =  6    LMIXTAU =  F

 exchange correlation table for  LEXCH =        8
   RHO(1)=    0.500       N(1)  =     2000
   RHO(2)=  100.500       N(2)  =     4000
 


--------------------------------------------------------------------------------------------------------


 ion  position               nearest neighbor table
   1  1.000  0.000  0.000-   7 1.82   8 1.82
   2  0.500  0.500  0.500-  10 1.82   9 1.82
   3  0.001  1.000  0.338-   7 2.40
   4  0.000  0.000  0.662-   8 2.40
   5  0.500  0.500  0.838-   9 2.40
   6  0.500  0.500  0.162-  10 2.40
   7  1.000  0.000  0.146-   1 1.82   3 2.40
   8  1.000  0.000  0.854-   1 1.82   4 2.40
   9  0.500  0.500  0.646-   2 1.82   5 2.40
  10  0.500  0.500  0.354-   2 1.82   6 2.40
 

IMPORTANT INFORMATION: All symmetrisations will be switched off!
NOSYMM: (Re-)initialisation of all symmetry stuff for point group C_1.


----------------------------------------------------------------------------------------

                                     Primitive cell                                     

  volume of cell :     159.5304

  direct lattice vectors                    reciprocal lattice vectors
     3.574043013  0.000000006 -0.000000042     0.279795178 -0.000000001  0.000000003
     0.000000007  3.574042987 -0.000000007    -0.000000001  0.279795180  0.000000001
    -0.000000145 -0.000000025 12.488892887     0.000000001  0.000000000  0.080071149

  length of vectors
     3.574043013  3.574042987 12.488892887     0.279795178  0.279795180  0.080071149

  position of ions in fractional coordinates (direct lattice)
     0.999999985  0.000000001  0.000000143
     0.499999986  0.499999998  0.499999908
     0.000769936  1.000000000  0.338337479
     0.000000119  0.000000013  0.662432335
     0.500000146  0.500000005  0.837567650
     0.500000111  0.499999986  0.162432349
     0.999999854  0.000000019  0.145775347
     0.999999906  0.000000003  0.854224458
     0.499999894  0.499999999  0.645775510
     0.499999872  0.499999976  0.354224629

  ion indices of the primitive-cell ions
   primitive index   ion index
                 1           1
                 2           2
                 3           3
                 4           4
                 5           5
                 6           6
                 7           7
                 8           8
                 9           9
                10          10

----------------------------------------------------------------------------------------

 
 
 KPOINTS: Kpoints                                 

Automatic generation of k-mesh.
 generate k-points for:    9    9    3
Space group operators:
 irot       det(A)        alpha          n_x          n_y          n_z        tau_x        tau_y        tau_z
    1     1.000000     0.000000     1.000000     0.000000     0.000000     0.000000     0.000000     0.000000
 
 Subroutine IBZKPT returns following result:
 ===========================================
 
 Found    122 irreducible k-points:
 
 Following reciprocal coordinates:
            Coordinates               Weight
  0.000000  0.000000  0.000000      1.000000
  0.111111  0.000000 -0.000000      2.000000
 -0.000000  0.111111  0.000000      2.000000
  0.222222  0.000000 -0.000000      2.000000
 -0.000000  0.222222  0.000000      2.000000
  0.333333  0.000000  0.000000      2.000000
 -0.000000  0.333333  0.000000      2.000000
  0.444444  0.000000  0.000000      2.000000
 -0.000000  0.444444  0.000000      2.000000
  0.111111  0.111111 -0.000000      2.000000
 -0.111111  0.111111  0.000000      2.000000
  0.222222  0.111111 -0.000000      2.000000
 -0.111111  0.222222  0.000000      2.000000
 -0.222222  0.111111  0.000000      2.000000
  0.111111  0.222222 -0.000000      2.000000
  0.333333  0.111111  0.000000      2.000000
 -0.111111  0.333333  0.000000      2.000000
 -0.333333  0.111111 -0.000000      2.000000
  0.111111  0.333333 -0.000000      2.000000
  0.444444  0.111111  0.000000      2.000000
 -0.111111  0.444444  0.000000      2.000000
 -0.444444  0.111111 -0.000000      2.000000
  0.111111  0.444444 -0.000000      2.000000
  0.222222  0.222222 -0.000000      2.000000
 -0.222222  0.222222  0.000000      2.000000
  0.333333  0.222222  0.000000      2.000000
 -0.222222  0.333333  0.000000      2.000000
 -0.333333  0.222222 -0.000000      2.000000
  0.222222  0.333333 -0.000000      2.000000
  0.444444  0.222222  0.000000      2.000000
 -0.222222  0.444444  0.000000      2.000000
 -0.444444  0.222222 -0.000000      2.000000
  0.222222  0.444444 -0.000000      2.000000
  0.333333  0.333333  0.000000      2.000000
 -0.333333  0.333333 -0.000000      2.000000
  0.444444  0.333333  0.000000      2.000000
 -0.333333  0.444444 -0.000000      2.000000
 -0.444444  0.333333 -0.000000      2.000000
  0.333333  0.444444  0.000000      2.000000
  0.444444  0.444444  0.000000      2.000000
 -0.444444  0.444444  0.000000      2.000000
  0.000000 -0.000000  0.333333      2.000000
  0.111111  0.000000  0.333333      2.000000
  0.000000  0.111111  0.333333      2.000000
 -0.111111 -0.000000  0.333333      2.000000
  0.000000 -0.111111  0.333333      2.000000
  0.222222  0.000000  0.333333      2.000000
 -0.000000  0.222222  0.333333      2.000000
 -0.222222 -0.000000  0.333333      2.000000
  0.000000 -0.222222  0.333333      2.000000
  0.333333  0.000000  0.333333      2.000000
 -0.000000  0.333333  0.333333      2.000000
 -0.333333 -0.000000  0.333333      2.000000
  0.000000 -0.333333  0.333333      2.000000
  0.444444  0.000000  0.333333      2.000000
 -0.000000  0.444444  0.333333      2.000000
 -0.444444 -0.000000  0.333333      2.000000
  0.000000 -0.444444  0.333333      2.000000
  0.111111  0.111111  0.333333      2.000000
 -0.111111  0.111111  0.333333      2.000000
 -0.111111 -0.111111  0.333333      2.000000
  0.111111 -0.111111  0.333333      2.000000
  0.222222  0.111111  0.333333      2.000000
 -0.111111  0.222222  0.333333      2.000000
 -0.222222 -0.111111  0.333333      2.000000
  0.111111 -0.222222  0.333333      2.000000
 -0.222222  0.111111 -0.333333      2.000000
  0.111111  0.222222 -0.333333      2.000000
  0.222222 -0.111111 -0.333333      2.000000
 -0.111111 -0.222222 -0.333333      2.000000
  0.333333  0.111111  0.333333      2.000000
 -0.111111  0.333333  0.333333      2.000000
 -0.333333 -0.111111  0.333333      2.000000
  0.111111 -0.333333  0.333333      2.000000
 -0.333333  0.111111 -0.333333      2.000000
  0.111111  0.333333 -0.333333      2.000000
  0.333333 -0.111111 -0.333333      2.000000
 -0.111111 -0.333333 -0.333333      2.000000
  0.444444  0.111111  0.333333      2.000000
 -0.111111  0.444444  0.333333      2.000000
 -0.444444 -0.111111  0.333333      2.000000
  0.111111 -0.444444  0.333333      2.000000
 -0.444444  0.111111 -0.333333      2.000000
  0.111111  0.444444 -0.333333      2.000000
  0.444444 -0.111111 -0.333333      2.000000
 -0.111111 -0.444444 -0.333333      2.000000
  0.222222  0.222222  0.333333      2.000000
 -0.222222  0.222222  0.333333      2.000000
 -0.222222 -0.222222  0.333333      2.000000
  0.222222 -0.222222  0.333333      2.000000
  0.333333  0.222222  0.333333      2.000000
 -0.222222  0.333333  0.333333      2.000000
 -0.333333 -0.222222  0.333333      2.000000
  0.222222 -0.333333  0.333333      2.000000
 -0.333333  0.222222 -0.333333      2.000000
  0.222222  0.333333 -0.333333      2.000000
  0.333333 -0.222222 -0.333333      2.000000
 -0.222222 -0.333333 -0.333333      2.000000
  0.444444  0.222222  0.333333      2.000000
 -0.222222  0.444444  0.333333      2.000000
 -0.444444 -0.222222  0.333333      2.000000
  0.222222 -0.444444  0.333333      2.000000
 -0.444444  0.222222 -0.333333      2.000000
  0.222222  0.444444 -0.333333      2.000000
  0.444444 -0.222222 -0.333333      2.000000
 -0.222222 -0.444444 -0.333333      2.000000
  0.333333  0.333333  0.333333      2.000000
 -0.333333  0.333333  0.333333      2.000000
 -0.333333 -0.333333  0.333333      2.000000
  0.333333 -0.333333  0.333333      2.000000
  0.444444  0.333333  0.333333      2.000000
 -0.333333  0.444444  0.333333      2.000000
 -0.444444 -0.333333  0.333333      2.000000
  0.333333 -0.444444  0.333333      2.000000
 -0.444444  0.333333 -0.333333      2.000000
  0.333333  0.444444 -0.333333      2.000000
  0.444444 -0.333333 -0.333333      2.000000
 -0.333333 -0.444444 -0.333333      2.000000
  0.444444  0.444444  0.333333      2.000000
 -0.444444  0.444444  0.333333      2.000000
 -0.444444 -0.444444  0.333333      2.000000
  0.444444 -0.444444  0.333333      2.000000
 
 Following cartesian coordinates:
            Coordinates               Weight
  0.000000  0.000000  0.000000      1.000000
  0.031088 -0.000000  0.000000      2.000000
 -0.000000  0.031088  0.000000      2.000000
  0.062177 -0.000000  0.000000      2.000000
 -0.000000  0.062177  0.000000      2.000000
  0.093265 -0.000000  0.000000      2.000000
 -0.000000  0.093265  0.000000      2.000000
  0.124353 -0.000000  0.000000      2.000000
 -0.000000  0.124353  0.000000      2.000000
  0.031088  0.031088  0.000000      2.000000
 -0.031088  0.031088 -0.000000      2.000000
  0.062177  0.031088  0.000000      2.000000
 -0.031088  0.062177 -0.000000      2.000000
 -0.062177  0.031088 -0.000000      2.000000
  0.031088  0.062177  0.000000      2.000000
  0.093265  0.031088  0.000000      2.000000
 -0.031088  0.093265 -0.000000      2.000000
 -0.093265  0.031088 -0.000000      2.000000
  0.031088  0.093265  0.000000      2.000000
  0.124353  0.031088  0.000000      2.000000
 -0.031088  0.124353 -0.000000      2.000000
 -0.124353  0.031088 -0.000000      2.000000
  0.031088  0.124353  0.000000      2.000000
  0.062177  0.062177  0.000000      2.000000
 -0.062177  0.062177 -0.000000      2.000000
  0.093265  0.062177  0.000000      2.000000
 -0.062177  0.093265 -0.000000      2.000000
 -0.093265  0.062177 -0.000000      2.000000
  0.062177  0.093265  0.000000      2.000000
  0.124353  0.062177  0.000000      2.000000
 -0.062177  0.124353 -0.000000      2.000000
 -0.124353  0.062177 -0.000000      2.000000
  0.062177  0.124353  0.000000      2.000000
  0.093265  0.093265  0.000000      2.000000
 -0.093265  0.093265 -0.000000      2.000000
  0.124353  0.093265  0.000000      2.000000
 -0.093265  0.124353 -0.000000      2.000000
 -0.124353  0.093265 -0.000000      2.000000
  0.093265  0.124353  0.000000      2.000000
  0.124353  0.124353  0.000000      2.000000
 -0.124353  0.124353 -0.000000      2.000000
  0.000000  0.000000  0.026690      2.000000
  0.031088 -0.000000  0.026690      2.000000
  0.000000  0.031088  0.026690      2.000000
 -0.031088  0.000000  0.026690      2.000000
  0.000000 -0.031088  0.026690      2.000000
  0.062177 -0.000000  0.026690      2.000000
  0.000000  0.062177  0.026690      2.000000
 -0.062177  0.000000  0.026690      2.000000
  0.000000 -0.062177  0.026690      2.000000
  0.093265 -0.000000  0.026690      2.000000
  0.000000  0.093265  0.026690      2.000000
 -0.093265  0.000000  0.026690      2.000000
  0.000000 -0.093265  0.026690      2.000000
  0.124353 -0.000000  0.026690      2.000000
  0.000000  0.124353  0.026690      2.000000
 -0.124353  0.000000  0.026690      2.000000
  0.000000 -0.124353  0.026690      2.000000
  0.031088  0.031088  0.026690      2.000000
 -0.031088  0.031088  0.026690      2.000000
 -0.031088 -0.031088  0.026690      2.000000
  0.031088 -0.031088  0.026690      2.000000
  0.062177  0.031088  0.026690      2.000000
 -0.031088  0.062177  0.026690      2.000000
 -0.062177 -0.031088  0.026690      2.000000
  0.031088 -0.062177  0.026690      2.000000
 -0.062177  0.031088 -0.026690      2.000000
  0.031088  0.062177 -0.026690      2.000000
  0.062177 -0.031088 -0.026690      2.000000
 -0.031088 -0.062177 -0.026690      2.000000
  0.093265  0.031088  0.026690      2.000000
 -0.031088  0.093265  0.026690      2.000000
 -0.093265 -0.031088  0.026690      2.000000
  0.031088 -0.093265  0.026690      2.000000
 -0.093265  0.031088 -0.026690      2.000000
  0.031088  0.093265 -0.026690      2.000000
  0.093265 -0.031088 -0.026690      2.000000
 -0.031088 -0.093265 -0.026690      2.000000
  0.124353  0.031088  0.026690      2.000000
 -0.031088  0.124353  0.026690      2.000000
 -0.124353 -0.031088  0.026690      2.000000
  0.031088 -0.124353  0.026690      2.000000
 -0.124353  0.031088 -0.026690      2.000000
  0.031088  0.124353 -0.026690      2.000000
  0.124353 -0.031088 -0.026690      2.000000
 -0.031088 -0.124353 -0.026690      2.000000
  0.062177  0.062177  0.026690      2.000000
 -0.062177  0.062177  0.026690      2.000000
 -0.062177 -0.062177  0.026690      2.000000
  0.062177 -0.062177  0.026690      2.000000
  0.093265  0.062177  0.026690      2.000000
 -0.062177  0.093265  0.026690      2.000000
 -0.093265 -0.062177  0.026690      2.000000
  0.062177 -0.093265  0.026690      2.000000
 -0.093265  0.062177 -0.026690      2.000000
  0.062177  0.093265 -0.026690      2.000000
  0.093265 -0.062177 -0.026690      2.000000
 -0.062177 -0.093265 -0.026690      2.000000
  0.124353  0.062177  0.026690      2.000000
 -0.062177  0.124353  0.026690      2.000000
 -0.124353 -0.062177  0.026690      2.000000
  0.062177 -0.124353  0.026690      2.000000
 -0.124353  0.062177 -0.026690      2.000000
  0.062177  0.124353 -0.026690      2.000000
  0.124353 -0.062177 -0.026690      2.000000
 -0.062177 -0.124353 -0.026690      2.000000
  0.093265  0.093265  0.026690      2.000000
 -0.093265  0.093265  0.026690      2.000000
 -0.093265 -0.093265  0.026690      2.000000
  0.093265 -0.093265  0.026690      2.000000
  0.124353  0.093265  0.026690      2.000000
 -0.093265  0.124353  0.026690      2.000000
 -0.124353 -0.093265  0.026690      2.000000
  0.093265 -0.124353  0.026690      2.000000
 -0.124353  0.093265 -0.026690      2.000000
  0.093265  0.124353 -0.026690      2.000000
  0.124353 -0.093265 -0.026690      2.000000
 -0.093265 -0.124353 -0.026690      2.000000
  0.124353  0.124353  0.026690      2.000000
 -0.124353  0.124353  0.026690      2.000000
 -0.124353 -0.124353  0.026690      2.000000
  0.124353 -0.124353  0.026690      2.000000
 


--------------------------------------------------------------------------------------------------------




 Dimension of arrays:
   k-points           NKPTS =    122   k-points in BZ     NKDIM =    122   number of bands    NBANDS=     64
   number of dos      NEDOS =    301   number of ions     NIONS =     10
   non local maximal  LDIM  =      6   non local SUM 2l+1 LMDIM =     18
   total plane-waves  NPLWV =  75264
   max r-space proj   IRMAX =      1   max aug-charges    IRDMAX=  22706
   dimension x,y,z NGX =    28 NGY =   28 NGZ =   96
   dimension x,y,z NGXF=    56 NGYF=   56 NGZF=  192
   support grid    NGXF=    56 NGYF=   56 NGZF=  192
   ions per type =               2   4   4
   NGX,Y,Z   is equivalent  to a cutoff of  13.02, 13.02, 12.78 a.u.
   NGXF,Y,Z  is equivalent  to a cutoff of  26.05, 26.05, 25.56 a.u.

 SYSTEM =  unknown system                          
 POSCAR =  generated by phonopy                    

 Startparameter for this run:
   NWRITE =      2    write-flag & timer
   PREC   = accura    normal or accurate (medium, high low for compatibility)
   ISTART =      0    job   : 0-new  1-cont  2-samecut
   ICHARG =      2    charge: 1-file 2-atom 10-const
   ISPIN  =      2    spin polarized calculation?
   LNONCOLLINEAR =      F non collinear calculations
   LSORBIT =      F    spin-orbit coupling
   INIWAV =      1    electr: 0-lowe 1-rand  2-diag
   LASPH  =      T    aspherical Exc in radial PAW
   METAGGA=      F    non-selfconsistent MetaGGA calc.

 Electronic Relaxation 1
   ENCUT  =  520.0 eV  38.22 Ry    6.18 a.u.   6.65  6.65 23.22*2*pi/ulx,y,z
   ENINI  =  520.0     initial cutoff
   ENAUG  =  627.1 eV  augmentation charge cutoff
   NELM   =    200;   NELMIN=  6; NELMDL= -5     # of ELM steps 
   EDIFF  = 0.1E-05   stopping-criterion for ELM
   LREAL  =      F    real-space projection
   NLSPLINE    = F    spline interpolate recip. space projectors
   LCOMPAT=      F    compatible to vasp.4.4
   GGA_COMPAT  = T    GGA compatible to vasp.4.4-vasp.4.6
   LMAXPAW     = -100 max onsite density
   LMAXMIX     =    2 max onsite mixed and CHGCAR
   VOSKOWN=      0    Vosko Wilk Nusair interpolation
   ROPT   =    0.00000   0.00000   0.00000
 Ionic relaxation
   EDIFFG = -.3E-01   stopping-criterion for IOM
   NSW    =      0    number of steps for IOM
   NBLOCK =      1;   KBLOCK =      1    inner block; outer block 
   IBRION =     -1    ionic relax: 0-MD 1-quasi-New 2-CG
   NFREE  =      0    steps in history (QN), initial steepest desc. (CG)
   ISIF   =      2    stress and relaxation
   IWAVPR =     10    prediction:  0-non 1-charg 2-wave 3-comb
   ISYM   =      0    0-nonsym 1-usesym 2-fastsym
   LCORR  =      T    Harris-Foulkes like correction to forces

   POTIM  = 0.5000    time-step for ionic-motion
   TEIN   =    0.0    initial temperature
   TEBEG  =    0.0;   TEEND  =   0.0 temperature during run
   SMASS  =  -3.00    Nose mass-parameter (am)
   estimated Nose-frequenzy (Omega)   =  0.10E-29 period in steps = 0.13E+47 mass=  -0.292E-27a.u.
   SCALEE = 1.0000    scale energy and forces
   NPACO  =    256;   APACO  = 16.0  distance and # of slots for P.C.
   PSTRESS=    0.0 pullay stress

  Mass of Ions in am
   POMASS =  65.39 40.08 14.00
  Ionic Valenz
   ZVAL   =  12.00 10.00  5.00
  Atomic Wigner-Seitz radii
   RWIGS  =  -1.00 -1.00 -1.00
  virtual crystal weights 
   VCA    =   1.00  1.00  1.00
   NELECT =      84.0000    total number of electrons
   NUPDOWN=      -1.0000    fix difference up-down

 DOS related values:
   EMIN   =  10.00;   EMAX   =-10.00  energy-range for DOS
   EFERMI =   0.00
   ISMEAR =     0;   SIGMA  =   0.05  broadening in eV -4-tet -1-fermi 0-gaus

 Electronic relaxation 2 (details)
   IALGO  =     38    algorithm
   LDIAG  =      T    sub-space diagonalisation (order eigenvalues)
   LSUBROT=      F    optimize rotation matrix (better conditioning)
   TURBO    =      0    0=normal 1=particle mesh
   IRESTART =      0    0=no restart 2=restart with 2 vectors
   NREBOOT  =      0    no. of reboots
   NMIN     =      0    reboot dimension
   EREF     =   0.00    reference energy to select bands
   IMIX   =      4    mixing-type and parameters
     AMIX     =   0.40;   BMIX     =  1.00
     AMIX_MAG =   1.60;   BMIX_MAG =  1.00
     AMIN     =   0.10
     WC   =   100.;   INIMIX=   1;  MIXPRE=   1;  MAXMIX= -45

 Intra band minimization:
   WEIMIN = 0.0000     energy-eigenvalue tresh-hold
   EBREAK =  0.39E-08  absolut break condition
   DEPER  =   0.30     relativ break condition  

   TIME   =   0.40     timestep for ELM

  volume/ion in A,a.u.               =      15.95       107.66
  Fermi-wavevector in a.u.,A,eV,Ry     =   1.321965  2.498152 23.777441  1.747593
  Thomas-Fermi vector in A             =   2.451681
 
 Write flags
   LWAVE        =      F    write WAVECAR
   LDOWNSAMPLE  =      F    k-point downsampling of WAVECAR
   LCHARG       =      F    write CHGCAR
   LVTOT        =      F    write LOCPOT, total local potential
   LVHAR        =      F    write LOCPOT, Hartree potential only
   LELF         =      F    write electronic localiz. function (ELF)
   LORBIT       =     11    0 simple, 1 ext, 2 COOP (PROOUT), +10 PAW based schemes


 Dipole corrections
   LMONO  =      F    monopole corrections only (constant potential shift)
   LDIPOL =      F    correct potential (dipole corrections)
   IDIPOL =      0    1-x, 2-y, 3-z, 4-all directions 
   EPSILON=  1.0000000 bulk dielectric constant

 Exchange correlation treatment:
   GGA     =    --    GGA type
   LEXCH   =     8    internal setting for exchange type
   VOSKOWN=      0    Vosko Wilk Nusair interpolation
   LHFCALC =     F    Hartree Fock is set to
   LHFONE  =     F    Hartree Fock one center treatment
   AEXX    =    0.0000 exact exchange contribution

 Linear response parameters
   LEPSILON=     F    determine dielectric tensor
   LRPA    =     F    only Hartree local field effects (RPA)
   LNABLA  =     F    use nabla operator in PAW spheres
   LVEL    =     F    velocity operator in full k-point grid
   LINTERFAST=   F  fast interpolation
   KINTER  =     0    interpolate to denser k-point grid
   CSHIFT  =0.1000    complex shift for real part using Kramers Kronig
   OMEGAMAX=  -1.0    maximum frequency
   DEG_THRESHOLD= 0.2000000E-02 threshold for treating states as degnerate
   RTIME   =   -0.100 relaxation time in fs
  (WPLASMAI=    0.000 imaginary part of plasma frequency in eV, 0.658/RTIME)
   DFIELD  = 0.0000000 0.0000000 0.0000000 field for delta impulse in time
 
 Orbital magnetization related:
   ORBITALMAG=     F  switch on orbital magnetization
   LCHIMAG   =     F  perturbation theory with respect to B field
   DQ        =  0.001000  dq finite difference perturbation B field
   LLRAUG    =     F  two centre corrections for induced B field



--------------------------------------------------------------------------------------------------------


 Static calculation
 charge density and potential will be updated during run
 spin polarized calculation
 Variant of blocked Davidson
 Davidson routine will perform the subspace rotation
 perform sub-space diagonalisation
    after iterative eigenvector-optimisation
 modified Broyden-mixing scheme, WC =      100.0
 initial mixing is a Kerker type mixing with AMIX =  0.4000 and BMIX =      1.0000
 Hartree-type preconditioning will be used
 using additional bands           22
 reciprocal scheme for non local part
 use partial core corrections
 calculate Harris-corrections to forces 
   (improved forces if not selfconsistent)
 use gradient corrections 
 use of overlap-Matrix (Vanderbilt PP)
 Gauss-broadening in eV      SIGMA  =   0.05


--------------------------------------------------------------------------------------------------------


  energy-cutoff  :      520.00
  volume of cell :      159.53
      direct lattice vectors                 reciprocal lattice vectors
     3.574043013  0.000000006 -0.000000042     0.279795178 -0.000000001  0.000000003
     0.000000007  3.574042987 -0.000000007    -0.000000001  0.279795180  0.000000001
    -0.000000145 -0.000000025 12.488892887     0.000000001  0.000000000  0.080071149

  length of vectors
     3.574043013  3.574042987 12.488892887     0.279795178  0.279795180  0.080071149


 
 k-points in units of 2pi/SCALE and weight: Kpoints                                 
   0.00000000  0.00000000  0.00000000       0.004
   0.03108835 -0.00000000  0.00000000       0.008
  -0.00000000  0.03108835  0.00000000       0.008
   0.06217671 -0.00000000  0.00000000       0.008
  -0.00000000  0.06217671  0.00000000       0.008
   0.09326506 -0.00000000  0.00000000       0.008
  -0.00000000  0.09326506  0.00000000       0.008
   0.12435341 -0.00000000  0.00000000       0.008
  -0.00000000  0.12435341  0.00000000       0.008
   0.03108835  0.03108835  0.00000000       0.008
  -0.03108835  0.03108835 -0.00000000       0.008
   0.06217671  0.03108835  0.00000000       0.008
  -0.03108835  0.06217671 -0.00000000       0.008
  -0.06217671  0.03108835 -0.00000000       0.008
   0.03108835  0.06217671  0.00000000       0.008
   0.09326506  0.03108835  0.00000000       0.008
  -0.03108835  0.09326506 -0.00000000       0.008
  -0.09326506  0.03108835 -0.00000000       0.008
   0.03108835  0.09326506  0.00000000       0.008
   0.12435341  0.03108835  0.00000000       0.008
  -0.03108835  0.12435341 -0.00000000       0.008
  -0.12435341  0.03108835 -0.00000000       0.008
   0.03108835  0.12435341  0.00000000       0.008
   0.06217671  0.06217671  0.00000000       0.008
  -0.06217671  0.06217671 -0.00000000       0.008
   0.09326506  0.06217671  0.00000000       0.008
  -0.06217671  0.09326506 -0.00000000       0.008
  -0.09326506  0.06217671 -0.00000000       0.008
   0.06217671  0.09326506  0.00000000       0.008
   0.12435341  0.06217671  0.00000000       0.008
  -0.06217671  0.12435341 -0.00000000       0.008
  -0.12435341  0.06217671 -0.00000000       0.008
   0.06217671  0.12435341  0.00000000       0.008
   0.09326506  0.09326506  0.00000000       0.008
  -0.09326506  0.09326506 -0.00000000       0.008
   0.12435341  0.09326506  0.00000000       0.008
  -0.09326506  0.12435341 -0.00000000       0.008
  -0.12435341  0.09326506 -0.00000000       0.008
   0.09326506  0.12435341  0.00000000       0.008
   0.12435341  0.12435341  0.00000000       0.008
  -0.12435341  0.12435341 -0.00000000       0.008
   0.00000000  0.00000000  0.02669038       0.008
   0.03108835 -0.00000000  0.02669038       0.008
   0.00000000  0.03108835  0.02669038       0.008
  -0.03108835  0.00000000  0.02669038       0.008
   0.00000000 -0.03108835  0.02669038       0.008
   0.06217671 -0.00000000  0.02669038       0.008
   0.00000000  0.06217671  0.02669038       0.008
  -0.06217671  0.00000000  0.02669038       0.008
   0.00000000 -0.06217671  0.02669038       0.008
   0.09326506 -0.00000000  0.02669038       0.008
   0.00000000  0.09326506  0.02669038       0.008
  -0.09326506  0.00000000  0.02669038       0.008
   0.00000000 -0.09326506  0.02669038       0.008
   0.12435341 -0.00000000  0.02669038       0.008
   0.00000000  0.12435341  0.02669038       0.008
  -0.12435341  0.00000000  0.02669038       0.008
   0.00000000 -0.12435341  0.02669038       0.008
   0.03108835  0.03108835  0.02669038       0.008
  -0.03108835  0.03108835  0.02669038       0.008
  -0.03108835 -0.03108835  0.02669038       0.008
   0.03108835 -0.03108835  0.02669038       0.008
   0.06217671  0.03108835  0.02669038       0.008
  -0.03108835  0.06217671  0.02669038       0.008
  -0.06217671 -0.03108835  0.02669038       0.008
   0.03108835 -0.06217671  0.02669038       0.008
  -0.06217671  0.03108835 -0.02669038       0.008
   0.03108835  0.06217671 -0.02669038       0.008
   0.06217671 -0.03108835 -0.02669038       0.008
  -0.03108835 -0.06217671 -0.02669038       0.008
   0.09326506  0.03108835  0.02669038       0.008
  -0.03108835  0.09326506  0.02669038       0.008
  -0.09326506 -0.03108835  0.02669038       0.008
   0.03108835 -0.09326506  0.02669038       0.008
  -0.09326506  0.03108835 -0.02669038       0.008
   0.03108835  0.09326506 -0.02669038       0.008
   0.09326506 -0.03108835 -0.02669038       0.008
  -0.03108835 -0.09326506 -0.02669038       0.008
   0.12435341  0.03108835  0.02669038       0.008
  -0.03108835  0.12435341  0.02669038       0.008
  -0.12435341 -0.03108835  0.02669038       0.008
   0.03108835 -0.12435341  0.02669038       0.008
  -0.12435341  0.03108835 -0.02669038       0.008
   0.03108835  0.12435341 -0.02669038       0.008
   0.12435341 -0.03108835 -0.02669038       0.008
  -0.03108835 -0.12435341 -0.02669038       0.008
   0.06217671  0.06217671  0.02669038       0.008
  -0.06217671  0.06217671  0.02669038       0.008
  -0.06217671 -0.06217671  0.02669038       0.008
   0.06217671 -0.06217671  0.02669038       0.008
   0.09326506  0.06217671  0.02669038       0.008
  -0.06217671  0.09326506  0.02669038       0.008
  -0.09326506 -0.06217671  0.02669038       0.008
   0.06217671 -0.09326506  0.02669038       0.008
  -0.09326506  0.06217671 -0.02669038       0.008
   0.06217671  0.09326506 -0.02669038       0.008
   0.09326506 -0.06217671 -0.02669038       0.008
  -0.06217671 -0.09326506 -0.02669038       0.008
   0.12435341  0.06217671  0.02669038       0.008
  -0.06217671  0.12435341  0.02669038       0.008
  -0.12435341 -0.06217671  0.02669038       0.008
   0.06217671 -0.12435341  0.02669038       0.008
  -0.12435341  0.06217671 -0.02669038       0.008
   0.06217671  0.12435341 -0.02669038       0.008
   0.12435341 -0.06217671 -0.02669038       0.008
  -0.06217671 -0.12435341 -0.02669038       0.008
   0.09326506  0.09326506  0.02669038       0.008
  -0.09326506  0.09326506  0.02669038       0.008
  -0.09326506 -0.09326506  0.02669038       0.008
   0.09326506 -0.09326506  0.02669038       0.008
   0.12435341  0.09326506  0.02669038       0.008
  -0.09326506  0.12435341  0.02669038       0.008
  -0.12435341 -0.09326506  0.02669038       0.008
   0.09326506 -0.12435341  0.02669038       0.008
  -0.12435341  0.09326506 -0.02669038       0.008
   0.09326506  0.12435341 -0.02669038       0.008
   0.12435341 -0.09326506 -0.02669038       0.008
  -0.09326506 -0.12435341 -0.02669038       0.008
   0.12435341  0.12435341  0.02669038       0.008
  -0.12435341  0.12435341  0.02669038       0.008
  -0.12435341 -0.12435341  0.02669038       0.008
   0.12435341 -0.12435341  0.02669038       0.008
 
 k-points in reciprocal lattice and weights: Kpoints                                 
   0.00000000  0.00000000  0.00000000       0.004
   0.11111111  0.00000000 -0.00000000       0.008
  -0.00000000  0.11111111  0.00000000       0.008
   0.22222222  0.00000000 -0.00000000       0.008
  -0.00000000  0.22222222  0.00000000       0.008
   0.33333333  0.00000000  0.00000000       0.008
  -0.00000000  0.33333333  0.00000000       0.008
   0.44444444  0.00000000  0.00000000       0.008
  -0.00000000  0.44444444  0.00000000       0.008
   0.11111111  0.11111111 -0.00000000       0.008
  -0.11111111  0.11111111  0.00000000       0.008
   0.22222222  0.11111111 -0.00000000       0.008
  -0.11111111  0.22222222  0.00000000       0.008
  -0.22222222  0.11111111  0.00000000       0.008
   0.11111111  0.22222222 -0.00000000       0.008
   0.33333333  0.11111111  0.00000000       0.008
  -0.11111111  0.33333333  0.00000000       0.008
  -0.33333333  0.11111111 -0.00000000       0.008
   0.11111111  0.33333333 -0.00000000       0.008
   0.44444444  0.11111111  0.00000000       0.008
  -0.11111111  0.44444444  0.00000000       0.008
  -0.44444444  0.11111111 -0.00000000       0.008
   0.11111111  0.44444444 -0.00000000       0.008
   0.22222222  0.22222222 -0.00000000       0.008
  -0.22222222  0.22222222  0.00000000       0.008
   0.33333333  0.22222222  0.00000000       0.008
  -0.22222222  0.33333333  0.00000000       0.008
  -0.33333333  0.22222222 -0.00000000       0.008
   0.22222222  0.33333333 -0.00000000       0.008
   0.44444444  0.22222222  0.00000000       0.008
  -0.22222222  0.44444444  0.00000000       0.008
  -0.44444444  0.22222222 -0.00000000       0.008
   0.22222222  0.44444444 -0.00000000       0.008
   0.33333333  0.33333333  0.00000000       0.008
  -0.33333333  0.33333333 -0.00000000       0.008
   0.44444444  0.33333333  0.00000000       0.008
  -0.33333333  0.44444444 -0.00000000       0.008
  -0.44444444  0.33333333 -0.00000000       0.008
   0.33333333  0.44444444  0.00000000       0.008
   0.44444444  0.44444444  0.00000000       0.008
  -0.44444444  0.44444444  0.00000000       0.008
   0.00000000 -0.00000000  0.33333333       0.008
   0.11111111  0.00000000  0.33333333       0.008
   0.00000000  0.11111111  0.33333333       0.008
  -0.11111111 -0.00000000  0.33333333       0.008
   0.00000000 -0.11111111  0.33333333       0.008
   0.22222222  0.00000000  0.33333333       0.008
  -0.00000000  0.22222222  0.33333333       0.008
  -0.22222222 -0.00000000  0.33333333       0.008
   0.00000000 -0.22222222  0.33333333       0.008
   0.33333333  0.00000000  0.33333333       0.008
  -0.00000000  0.33333333  0.33333333       0.008
  -0.33333333 -0.00000000  0.33333333       0.008
   0.00000000 -0.33333333  0.33333333       0.008
   0.44444444  0.00000000  0.33333333       0.008
  -0.00000000  0.44444444  0.33333333       0.008
  -0.44444444 -0.00000000  0.33333333       0.008
   0.00000000 -0.44444444  0.33333333       0.008
   0.11111111  0.11111111  0.33333333       0.008
  -0.11111111  0.11111111  0.33333333       0.008
  -0.11111111 -0.11111111  0.33333333       0.008
   0.11111111 -0.11111111  0.33333333       0.008
   0.22222222  0.11111111  0.33333333       0.008
  -0.11111111  0.22222222  0.33333333       0.008
  -0.22222222 -0.11111111  0.33333333       0.008
   0.11111111 -0.22222222  0.33333333       0.008
  -0.22222222  0.11111111 -0.33333333       0.008
   0.11111111  0.22222222 -0.33333333       0.008
   0.22222222 -0.11111111 -0.33333333       0.008
  -0.11111111 -0.22222222 -0.33333333       0.008
   0.33333333  0.11111111  0.33333333       0.008
  -0.11111111  0.33333333  0.33333333       0.008
  -0.33333333 -0.11111111  0.33333333       0.008
   0.11111111 -0.33333333  0.33333333       0.008
  -0.33333333  0.11111111 -0.33333333       0.008
   0.11111111  0.33333333 -0.33333333       0.008
   0.33333333 -0.11111111 -0.33333333       0.008
  -0.11111111 -0.33333333 -0.33333333       0.008
   0.44444444  0.11111111  0.33333333       0.008
  -0.11111111  0.44444444  0.33333333       0.008
  -0.44444444 -0.11111111  0.33333333       0.008
   0.11111111 -0.44444444  0.33333333       0.008
  -0.44444444  0.11111111 -0.33333333       0.008
   0.11111111  0.44444444 -0.33333333       0.008
   0.44444444 -0.11111111 -0.33333333       0.008
  -0.11111111 -0.44444444 -0.33333333       0.008
   0.22222222  0.22222222  0.33333333       0.008
  -0.22222222  0.22222222  0.33333333       0.008
  -0.22222222 -0.22222222  0.33333333       0.008
   0.22222222 -0.22222222  0.33333333       0.008
   0.33333333  0.22222222  0.33333333       0.008
  -0.22222222  0.33333333  0.33333333       0.008
  -0.33333333 -0.22222222  0.33333333       0.008
   0.22222222 -0.33333333  0.33333333       0.008
  -0.33333333  0.22222222 -0.33333333       0.008
   0.22222222  0.33333333 -0.33333333       0.008
   0.33333333 -0.22222222 -0.33333333       0.008
  -0.22222222 -0.33333333 -0.33333333       0.008
   0.44444444  0.22222222  0.33333333       0.008
  -0.22222222  0.44444444  0.33333333       0.008
  -0.44444444 -0.22222222  0.33333333       0.008
   0.22222222 -0.44444444  0.33333333       0.008
  -0.44444444  0.22222222 -0.33333333       0.008
   0.22222222  0.44444444 -0.33333333       0.008
   0.44444444 -0.22222222 -0.33333333       0.008
  -0.22222222 -0.44444444 -0.33333333       0.008
   0.33333333  0.33333333  0.33333333       0.008
  -0.33333333  0.33333333  0.33333333       0.008
  -0.33333333 -0.33333333  0.33333333       0.008
   0.33333333 -0.33333333  0.33333333       0.008
   0.44444444  0.33333333  0.33333333       0.008
  -0.33333333  0.44444444  0.33333333       0.008
  -0.44444444 -0.33333333  0.33333333       0.008
   0.33333333 -0.44444444  0.33333333       0.008
  -0.44444444  0.33333333 -0.33333333       0.008
   0.33333333  0.44444444 -0.33333333       0.008
   0.44444444 -0.33333333 -0.33333333       0.008
  -0.33333333 -0.44444444 -0.33333333       0.008
   0.44444444  0.44444444  0.33333333       0.008
  -0.44444444  0.44444444  0.33333333       0.008
  -0.44444444 -0.44444444  0.33333333       0.008
   0.44444444 -0.44444444  0.33333333       0.008
 
 position of ions in fractional coordinates (direct lattice) 
   0.99999998  0.00000000  0.00000014
   0.49999999  0.50000000  0.49999991
   0.00076994  1.00000000  0.33833748
   0.00000012  0.00000001  0.66243234
   0.50000015  0.50000000  0.83756765
   0.50000011  0.49999999  0.16243235
   0.99999985  0.00000002  0.14577535
   0.99999991  0.00000000  0.85422446
   0.49999989  0.50000000  0.64577551
   0.49999987  0.49999998  0.35422463
 
 position of ions in cartesian coordinates  (Angst):
   3.57404296  0.00000001  0.00000175
   1.78702139  1.78702148  6.24444526
   0.00275174  3.57404298  4.22546053
   0.00000033  0.00000003  8.27304648
   1.78702191  1.78702149 10.46029264
   1.78702188  1.78702144  2.02860018
   3.57404247  0.00000007  1.82057265
   3.57404255 -0.00000001 10.66831772
   1.78702104  1.78702148  8.06502116
   1.78702100  1.78702140  4.42387343
 


--------------------------------------------------------------------------------------------------------


 k-point   1 :   0.0000 0.0000 0.0000  plane waves:    4327
 k-point   2 :   0.1111 0.0000-0.0000  plane waves:    4311
 k-point   3 :  -0.0000 0.1111 0.0000  plane waves:    4311
 k-point   4 :   0.2222 0.0000-0.0000  plane waves:    4319
 k-point   5 :  -0.0000 0.2222 0.0000  plane waves:    4319
 k-point   6 :   0.3333 0.0000 0.0000  plane waves:    4299
 k-point   7 :  -0.0000 0.3333 0.0000  plane waves:    4299
 k-point   8 :   0.4444 0.0000 0.0000  plane waves:    4290
 k-point   9 :  -0.0000 0.4444 0.0000  plane waves:    4290
 k-point  10 :   0.1111 0.1111-0.0000  plane waves:    4317
 k-point  11 :  -0.1111 0.1111 0.0000  plane waves:    4317
 k-point  12 :   0.2222 0.1111-0.0000  plane waves:    4303
 k-point  13 :  -0.1111 0.2222 0.0000  plane waves:    4303
 k-point  14 :  -0.2222 0.1111 0.0000  plane waves:    4303
 k-point  15 :   0.1111 0.2222-0.0000  plane waves:    4303
 k-point  16 :   0.3333 0.1111 0.0000  plane waves:    4293
 k-point  17 :  -0.1111 0.3333 0.0000  plane waves:    4293
 k-point  18 :  -0.3333 0.1111-0.0000  plane waves:    4293
 k-point  19 :   0.1111 0.3333-0.0000  plane waves:    4293
 k-point  20 :   0.4444 0.1111 0.0000  plane waves:    4280
 k-point  21 :  -0.1111 0.4444 0.0000  plane waves:    4280
 k-point  22 :  -0.4444 0.1111-0.0000  plane waves:    4280
 k-point  23 :   0.1111 0.4444-0.0000  plane waves:    4280
 k-point  24 :   0.2222 0.2222-0.0000  plane waves:    4297
 k-point  25 :  -0.2222 0.2222 0.0000  plane waves:    4297
 k-point  26 :   0.3333 0.2222 0.0000  plane waves:    4287
 k-point  27 :  -0.2222 0.3333 0.0000  plane waves:    4287
 k-point  28 :  -0.3333 0.2222-0.0000  plane waves:    4287
 k-point  29 :   0.2222 0.3333-0.0000  plane waves:    4287
 k-point  30 :   0.4444 0.2222 0.0000  plane waves:    4306
 k-point  31 :  -0.2222 0.4444 0.0000  plane waves:    4306
 k-point  32 :  -0.4444 0.2222-0.0000  plane waves:    4306
 k-point  33 :   0.2222 0.4444-0.0000  plane waves:    4306
 k-point  34 :   0.3333 0.3333 0.0000  plane waves:    4280
 k-point  35 :  -0.3333 0.3333-0.0000  plane waves:    4280
 k-point  36 :   0.4444 0.3333 0.0000  plane waves:    4285
 k-point  37 :  -0.3333 0.4444-0.0000  plane waves:    4285
 k-point  38 :  -0.4444 0.3333-0.0000  plane waves:    4285
 k-point  39 :   0.3333 0.4444 0.0000  plane waves:    4285
 k-point  40 :   0.4444 0.4444 0.0000  plane waves:    4298
 k-point  41 :  -0.4444 0.4444 0.0000  plane waves:    4298
 k-point  42 :   0.0000-0.0000 0.3333  plane waves:    4298
 k-point  43 :   0.1111 0.0000 0.3333  plane waves:    4317
 k-point  44 :   0.0000 0.1111 0.3333  plane waves:    4317
 k-point  45 :  -0.1111-0.0000 0.3333  plane waves:    4317
 k-point  46 :   0.0000-0.1111 0.3333  plane waves:    4317
 k-point  47 :   0.2222 0.0000 0.3333  plane waves:    4319
 k-point  48 :  -0.0000 0.2222 0.3333  plane waves:    4319
 k-point  49 :  -0.2222-0.0000 0.3333  plane waves:    4319
 k-point  50 :   0.0000-0.2222 0.3333  plane waves:    4319
 k-point  51 :   0.3333 0.0000 0.3333  plane waves:    4290
 k-point  52 :  -0.0000 0.3333 0.3333  plane waves:    4290
 k-point  53 :  -0.3333-0.0000 0.3333  plane waves:    4290
 k-point  54 :   0.0000-0.3333 0.3333  plane waves:    4290
 k-point  55 :   0.4444 0.0000 0.3333  plane waves:    4283
 k-point  56 :  -0.0000 0.4444 0.3333  plane waves:    4283
 k-point  57 :  -0.4444-0.0000 0.3333  plane waves:    4283
 k-point  58 :   0.0000-0.4444 0.3333  plane waves:    4283
 k-point  59 :   0.1111 0.1111 0.3333  plane waves:    4316
 k-point  60 :  -0.1111 0.1111 0.3333  plane waves:    4316
 k-point  61 :  -0.1111-0.1111 0.3333  plane waves:    4316
 k-point  62 :   0.1111-0.1111 0.3333  plane waves:    4316
 k-point  63 :   0.2222 0.1111 0.3333  plane waves:    4317
 k-point  64 :  -0.1111 0.2222 0.3333  plane waves:    4317
 k-point  65 :  -0.2222-0.1111 0.3333  plane waves:    4317
 k-point  66 :   0.1111-0.2222 0.3333  plane waves:    4317
 k-point  67 :  -0.2222 0.1111-0.3333  plane waves:    4317
 k-point  68 :   0.1111 0.2222-0.3333  plane waves:    4317
 k-point  69 :   0.2222-0.1111-0.3333  plane waves:    4317
 k-point  70 :  -0.1111-0.2222-0.3333  plane waves:    4317
 k-point  71 :   0.3333 0.1111 0.3333  plane waves:    4293
 k-point  72 :  -0.1111 0.3333 0.3333  plane waves:    4293
 k-point  73 :  -0.3333-0.1111 0.3333  plane waves:    4293
 k-point  74 :   0.1111-0.3333 0.3333  plane waves:    4293
 k-point  75 :  -0.3333 0.1111-0.3333  plane waves:    4293
 k-point  76 :   0.1111 0.3333-0.3333  plane waves:    4293
 k-point  77 :   0.3333-0.1111-0.3333  plane waves:    4293
 k-point  78 :  -0.1111-0.3333-0.3333  plane waves:    4293
 k-point  79 :   0.4444 0.1111 0.3333  plane waves:    4286
 k-point  80 :  -0.1111 0.4444 0.3333  plane waves:    4286
 k-point  81 :  -0.4444-0.1111 0.3333  plane waves:    4286
 k-point  82 :   0.1111-0.4444 0.3333  plane waves:    4286
 k-point  83 :  -0.4444 0.1111-0.3333  plane waves:    4286
 k-point  84 :   0.1111 0.4444-0.3333  plane waves:    4286
 k-point  85 :   0.4444-0.1111-0.3333  plane waves:    4286
 k-point  86 :  -0.1111-0.4444-0.3333  plane waves:    4286
 k-point  87 :   0.2222 0.2222 0.3333  plane waves:    4301
 k-point  88 :  -0.2222 0.2222 0.3333  plane waves:    4301
 k-point  89 :  -0.2222-0.2222 0.3333  plane waves:    4301
 k-point  90 :   0.2222-0.2222 0.3333  plane waves:    4301
 k-point  91 :   0.3333 0.2222 0.3333  plane waves:    4282
 k-point  92 :  -0.2222 0.3333 0.3333  plane waves:    4282
 k-point  93 :  -0.3333-0.2222 0.3333  plane waves:    4282
 k-point  94 :   0.2222-0.3333 0.3333  plane waves:    4282
 k-point  95 :  -0.3333 0.2222-0.3333  plane waves:    4282
 k-point  96 :   0.2222 0.3333-0.3333  plane waves:    4282
 k-point  97 :   0.3333-0.2222-0.3333  plane waves:    4282
 k-point  98 :  -0.2222-0.3333-0.3333  plane waves:    4282
 k-point  99 :   0.4444 0.2222 0.3333  plane waves:    4278
 k-point 100 :  -0.2222 0.4444 0.3333  plane waves:    4278
 k-point 101 :  -0.4444-0.2222 0.3333  plane waves:    4278
 k-point 102 :   0.2222-0.4444 0.3333  plane waves:    4278
 k-point 103 :  -0.4444 0.2222-0.3333  plane waves:    4278
 k-point 104 :   0.2222 0.4444-0.3333  plane waves:    4278
 k-point 105 :   0.4444-0.2222-0.3333  plane waves:    4278
 k-point 106 :  -0.2222-0.4444-0.3333  plane waves:    4278
 k-point 107 :   0.3333 0.3333 0.3333  plane waves:    4284
 k-point 108 :  -0.3333 0.3333 0.3333  plane waves:    4284
 k-point 109 :  -0.3333-0.3333 0.3333  plane waves:    4284
 k-point 110 :   0.3333-0.3333 0.3333  plane waves:    4284
 k-point 111 :   0.4444 0.3333 0.3333  plane waves:    4284
 k-point 112 :  -0.3333 0.4444 0.3333  plane waves:    4284
 k-point 113 :  -0.4444-0.3333 0.3333  plane waves:    4284
 k-point 114 :   0.3333-0.4444 0.3333  plane waves:    4284
 k-point 115 :  -0.4444 0.3333-0.3333  plane waves:    4284
 k-point 116 :   0.3333 0.4444-0.3333  plane waves:    4284
 k-point 117 :   0.4444-0.3333-0.3333  plane waves:    4284
 k-point 118 :  -0.3333-0.4444-0.3333  plane waves:    4284
 k-point 119 :   0.4444 0.4444 0.3333  plane waves:    4304
 k-point 120 :  -0.4444 0.4444 0.3333  plane waves:    4304
 k-point 121 :  -0.4444-0.4444 0.3333  plane waves:    4304
 k-point 122 :   0.4444-0.4444 0.3333  plane waves:    4304

 maximum and minimum number of plane-waves per node :      1095     1056

 maximum number of plane-waves:      4327
 maximum index in each direction: 
   IXMAX=    7   IYMAX=    7   IZMAX=   23
   IXMIN=   -7   IYMIN=   -7   IZMIN=  -23


 parallel 3D FFT for wavefunctions:
    minimum data exchange during FFTs selected (reduces bandwidth)
 parallel 3D FFT for charge:
    minimum data exchange during FFTs selected (reduces bandwidth)


 total amount of memory used by VASP MPI-rank0   111221. kBytes
=======================================================================

   base      :      30000. kBytes
   nonl-proj :      58361. kBytes
   fftplans  :        935. kBytes
   grid      :       3843. kBytes
   one-center:         93. kBytes
   wavefun   :      17989. kBytes
 
     INWAV:  cpu time    0.0000: real time    0.0002
 Broyden mixing: mesh for mixing (old mesh)
   NGX = 13   NGY = 13   NGZ = 47
  (NGX  = 56   NGY  = 56   NGZ  =192)
  gives a total of   7943 points

 initial charge density was supplied:
 charge density of overlapping atoms calculated
 number of electron      84.0000000 magnetization       0.6000000
 keeping initial charge density in first step


--------------------------------------------------------------------------------------------------------


 Maximum index for augmentation-charges          942 (set IRDMAX)


--------------------------------------------------------------------------------------------------------


 First call to EWALD:  gamma=   0.327
 Maximum number of real-space cells 4x 4x 1
 Maximum number of reciprocal cells 2x 2x 6

    FEWALD:  cpu time    0.0013: real time    0.0013


--------------------------------------- Iteration      1(   1)  ---------------------------------------


    POTLOK:  cpu time    0.0591: real time    0.0750
    SETDIJ:  cpu time    0.9866: real time    0.9879
     EDDAV:  cpu time   11.1090: real time   11.1352
       DOS:  cpu time    0.0041: real time    0.0041
    --------------------------------------------
      LOOP:  cpu time   12.1589: real time   12.2023

 eigenvalue-minimisations  : 31232
 total energy-change (2. order) : 0.7500961E+03  (-0.4179365E+04)
 number of electron      84.0000000 magnetization       0.6000000
 augmentation part       84.0000000 magnetization       0.6000000

 Free energy of the ion-electron system (eV)
  ---------------------------------------------------
  alpha Z        PSCENC =       451.66503955
  Ewald energy   TEWEN  =     -5990.98388734
  -Hartree energ DENC   =     -2273.58092965
  -exchange      EXHF   =         0.00000000
  -V(xc)+E(xc)   XCENC  =       422.60776144
  PAW double counting   =      6649.44116713    -7029.34659928
  entropy T*S    EENTRO =        -0.00419526
  eigenvalues    EBANDS =       -59.86448756
  atomic energy  EATOM  =      8580.16218116
  Solvation  Ediel_sol  =         0.00000000
  ---------------------------------------------------
  free energy    TOTEN  =       750.09605019 eV

  energy without entropy =      750.10024545  energy(sigma->0) =      750.09814782


--------------------------------------------------------------------------------------------------------




--------------------------------------- Iteration      1(   2)  ---------------------------------------


     EDDAV:  cpu time   10.3054: real time   10.3288
       DOS:  cpu time    0.0018: real time    0.0018
    --------------------------------------------
      LOOP:  cpu time   10.3072: real time   10.3306

 eigenvalue-minimisations  : 32528
 total energy-change (2. order) :-0.8047051E+03  (-0.7681263E+03)
 number of electron      84.0000000 magnetization       0.6000000
 augmentation part       84.0000000 magnetization       0.6000000

 Free energy of the ion-electron system (eV)
  ---------------------------------------------------
  alpha Z        PSCENC =       451.66503955
  Ewald energy   TEWEN  =     -5990.98388734
  -Hartree energ DENC   =     -2273.58092965
  -exchange      EXHF   =         0.00000000
  -V(xc)+E(xc)   XCENC  =       422.60776144
  PAW double counting   =      6649.44116713    -7029.34659928
  entropy T*S    EENTRO =        -0.00000000
  eigenvalues    EBANDS =      -864.57373973
  atomic energy  EATOM  =      8580.16218116
  Solvation  Ediel_sol  =         0.00000000
  ---------------------------------------------------
  free energy    TOTEN  =       -54.60900672 eV

  energy without entropy =      -54.60900672  energy(sigma->0) =      -54.60900672


--------------------------------------------------------------------------------------------------------




--------------------------------------- Iteration      1(   3)  ---------------------------------------


     EDDAV:  cpu time   15.1097: real time   15.1642
       DOS:  cpu time    0.0021: real time    0.0021
    --------------------------------------------
      LOOP:  cpu time   15.1118: real time   15.1663

 eigenvalue-minimisations  : 46560
 total energy-change (2. order) :-0.8421176E+02  (-0.8298152E+02)
 number of electron      84.0000000 magnetization       0.6000000
 augmentation part       84.0000000 magnetization       0.6000000

 Free energy of the ion-electron system (eV)
  ---------------------------------------------------
  alpha Z        PSCENC =       451.66503955
  Ewald energy   TEWEN  =     -5990.98388734
  -Hartree energ DENC   =     -2273.58092965
  -exchange      EXHF   =         0.00000000
  -V(xc)+E(xc)   XCENC  =       422.60776144
  PAW double counting   =      6649.44116713    -7029.34659928
  entropy T*S    EENTRO =        -0.00000000
  eigenvalues    EBANDS =      -948.78550215
  atomic energy  EATOM  =      8580.16218116
  Solvation  Ediel_sol  =         0.00000000
  ---------------------------------------------------
  free energy    TOTEN  =      -138.82076914 eV

  energy without entropy =     -138.82076914  energy(sigma->0) =     -138.82076914


--------------------------------------------------------------------------------------------------------




--------------------------------------- Iteration      1(   4)  ---------------------------------------


     EDDAV:  cpu time   16.3445: real time   16.3804
       DOS:  cpu time    0.0021: real time    0.0021
    --------------------------------------------
      LOOP:  cpu time   16.3467: real time   16.3825

 eigenvalue-minimisations  : 51024
 total energy-change (2. order) :-0.4696786E+01  (-0.4666684E+01)
 number of electron      84.0000000 magnetization       0.6000000
 augmentation part       84.0000000 magnetization       0.6000000

 Free energy of the ion-electron system (eV)
  ---------------------------------------------------
  alpha Z        PSCENC =       451.66503955
  Ewald energy   TEWEN  =     -5990.98388734
  -Hartree energ DENC   =     -2273.58092965
  -exchange      EXHF   =         0.00000000
  -V(xc)+E(xc)   XCENC  =       422.60776144
  PAW double counting   =      6649.44116713    -7029.34659928
  entropy T*S    EENTRO =        -0.00000000
  eigenvalues    EBANDS =      -953.48228859
  atomic energy  EATOM  =      8580.16218116
  Solvation  Ediel_sol  =         0.00000000
  ---------------------------------------------------
  free energy    TOTEN  =      -143.51755558 eV

  energy without entropy =     -143.51755558  energy(sigma->0) =     -143.51755558


--------------------------------------------------------------------------------------------------------




--------------------------------------- Iteration      1(   5)  ---------------------------------------


     EDDAV:  cpu time   13.5137: real time   13.5657
       DOS:  cpu time    0.0022: real time    0.0022
    CHARGE:  cpu time    1.0691: real time    1.0711
    MIXING:  cpu time    0.0027: real time    0.0028
    --------------------------------------------
      LOOP:  cpu time   14.5876: real time   14.6417

 eigenvalue-minimisations  : 40928
 total energy-change (2. order) :-0.1045248E+00  (-0.1045160E+00)
 number of electron      83.9999973 magnetization       0.4060930
 augmentation part       26.6360183 magnetization       0.4295130

 Broyden mixing:
  rms(total) = 0.20790E+01    rms(broyden)= 0.20786E+01
  rms(prec ) = 0.26683E+01
  weight for this iteration     100.00

 Free energy of the ion-electron system (eV)
  ---------------------------------------------------
  alpha Z        PSCENC =       451.66503955
  Ewald energy   TEWEN  =     -5990.98388734
  -Hartree energ DENC   =     -2273.58092965
  -exchange      EXHF   =         0.00000000
  -V(xc)+E(xc)   XCENC  =       422.60776144
  PAW double counting   =      6649.44116713    -7029.34659928
  entropy T*S    EENTRO =        -0.00000000
  eigenvalues    EBANDS =      -953.58681337
  atomic energy  EATOM  =      8580.16218116
  Solvation  Ediel_sol  =         0.00000000
  ---------------------------------------------------
  free energy    TOTEN  =      -143.62208036 eV

  energy without entropy =     -143.62208036  energy(sigma->0) =     -143.62208036


--------------------------------------------------------------------------------------------------------




--------------------------------------- Iteration      1(   6)  ---------------------------------------


    POTLOK:  cpu time    0.0410: real time    0.0469
    SETDIJ:  cpu time    0.9820: real time    0.9830
     EDDAV:  cpu time   14.2160: real time   14.2449
       DOS:  cpu time    0.0022: real time    0.0022
    CHARGE:  cpu time    1.0765: real time    1.0788
    MIXING:  cpu time    0.0011: real time    0.0012
    --------------------------------------------
      LOOP:  cpu time   16.3188: real time   16.3571

 eigenvalue-minimisations  : 47664
 total energy-change (2. order) : 0.3297115E+02  (-0.4349569E+01)
 number of electron      83.9999971 magnetization       0.2809334
 augmentation part       27.5133339 magnetization       0.2776519

 Broyden mixing:
  rms(total) = 0.11533E+01    rms(broyden)= 0.11532E+01
  rms(prec ) = 0.11973E+01
  weight for this iteration     100.00

 eigenvalues of (default mixing * dielectric matrix)
  average eigenvalue GAMMA=   0.8894
  0.8894

 Free energy of the ion-electron system (eV)
  ---------------------------------------------------
  alpha Z        PSCENC =       451.66503955
  Ewald energy   TEWEN  =     -5990.98388734
  -Hartree energ DENC   =     -2269.39674242
  -exchange      EXHF   =         0.00000000
  -V(xc)+E(xc)   XCENC  =       432.66213572
  PAW double counting   =      6970.11466548    -7349.62923642
  entropy T*S    EENTRO =        -0.00000000
  eigenvalues    EBANDS =      -935.24508291
  atomic energy  EATOM  =      8580.16218116
  Solvation  Ediel_sol  =         0.00000000
  ---------------------------------------------------
  free energy    TOTEN  =      -110.65092718 eV

  energy without entropy =     -110.65092718  energy(sigma->0) =     -110.65092718


--------------------------------------------------------------------------------------------------------




--------------------------------------- Iteration      1(   7)  ---------------------------------------


    POTLOK:  cpu time    0.0356: real time    0.0478
    SETDIJ:  cpu time    0.9835: real time    0.9848
     EDDAV:  cpu time   13.7425: real time   13.7738
       DOS:  cpu time    0.0021: real time    0.0021
    CHARGE:  cpu time    1.0669: real time    1.0688
    MIXING:  cpu time    0.0006: real time    0.0006
    --------------------------------------------
      LOOP:  cpu time   15.8312: real time   15.8779

 eigenvalue-minimisations  : 41456
 total energy-change (2. order) :-0.1002069E+01  (-0.1431396E+01)
 number of electron      83.9999971 magnetization       0.1836473
 augmentation part       27.0993975 magnetization       0.1780144

 Broyden mixing:
  rms(total) = 0.67964E+00    rms(broyden)= 0.67956E+00
  rms(prec ) = 0.73051E+00
  weight for this iteration     100.00

 eigenvalues of (default mixing * dielectric matrix)
  average eigenvalue GAMMA=   1.1038
  1.1038  1.1038

 Free energy of the ion-electron system (eV)
  ---------------------------------------------------
  alpha Z        PSCENC =       451.66503955
  Ewald energy   TEWEN  =     -5990.98388734
  -Hartree energ DENC   =     -2286.12307147
  -exchange      EXHF   =         0.00000000
  -V(xc)+E(xc)   XCENC  =       432.83962056
  PAW double counting   =      7236.76606239    -7638.94433440
  entropy T*S    EENTRO =        -0.00000000
  eigenvalues    EBANDS =      -897.03460638
  atomic energy  EATOM  =      8580.16218116
  Solvation  Ediel_sol  =         0.00000000
  ---------------------------------------------------
  free energy    TOTEN  =      -111.65299594 eV

  energy without entropy =     -111.65299594  energy(sigma->0) =     -111.65299594


--------------------------------------------------------------------------------------------------------




--------------------------------------- Iteration      1(   8)  ---------------------------------------


    POTLOK:  cpu time    0.0358: real time    0.0446
    SETDIJ:  cpu time    0.9861: real time    0.9873
     EDDAV:  cpu time   15.5937: real time   15.6254
       DOS:  cpu time    0.0021: real time    0.0021
    CHARGE:  cpu time    1.0685: real time    1.0700
    MIXING:  cpu time    0.0006: real time    0.0006
    --------------------------------------------
      LOOP:  cpu time   17.6868: real time   17.7299

 eigenvalue-minimisations  : 48224
 total energy-change (2. order) : 0.1219512E-01  (-0.1893566E+00)
 number of electron      83.9999971 magnetization       0.0300318
 augmentation part       27.2160179 magnetization       0.0226405

 Broyden mixing:
  rms(total) = 0.38670E+00    rms(broyden)= 0.38668E+00
  rms(prec ) = 0.42251E+00
  weight for this iteration     100.00

 eigenvalues of (default mixing * dielectric matrix)
  average eigenvalue GAMMA=   1.4613
  2.6743  0.8548  0.8548

 Free energy of the ion-electron system (eV)
  ---------------------------------------------------
  alpha Z        PSCENC =       451.66503955
  Ewald energy   TEWEN  =     -5990.98388734
  -Hartree energ DENC   =     -2271.18661942
  -exchange      EXHF   =         0.00000000
  -V(xc)+E(xc)   XCENC  =       431.04246045
  PAW double counting   =      7448.04278157    -7856.86583143
  entropy T*S    EENTRO =        -0.00000000
  eigenvalues    EBANDS =      -903.51692534
  atomic energy  EATOM  =      8580.16218116
  Solvation  Ediel_sol  =         0.00000000
  ---------------------------------------------------
  free energy    TOTEN  =      -111.64080082 eV

  energy without entropy =     -111.64080082  energy(sigma->0) =     -111.64080082


--------------------------------------------------------------------------------------------------------




--------------------------------------- Iteration      1(   9)  ---------------------------------------


    POTLOK:  cpu time    0.0369: real time    0.0697
    SETDIJ:  cpu time    0.9861: real time    0.9872
     EDDAV:  cpu time   14.0032: real time   14.0313
       DOS:  cpu time    0.0017: real time    0.0017
    CHARGE:  cpu time    1.0742: real time    1.0759
    MIXING:  cpu time    0.0006: real time    0.0006
    --------------------------------------------
      LOOP:  cpu time   16.1027: real time   16.1663

 eigenvalue-minimisations  : 42512
 total energy-change (2. order) : 0.8372047E-01  (-0.4814471E-01)
 number of electron      83.9999971 magnetization       0.0351362
 augmentation part       27.1356565 magnetization       0.0292112

 Broyden mixing:
  rms(total) = 0.11974E+00    rms(broyden)= 0.11973E+00
  rms(prec ) = 0.13340E+00
  weight for this iteration     100.00

 eigenvalues of (default mixing * dielectric matrix)
  average eigenvalue GAMMA=   1.2647
  2.4730  0.9356  0.9356  0.7146

 Free energy of the ion-electron system (eV)
  ---------------------------------------------------
  alpha Z        PSCENC =       451.66503955
  Ewald energy   TEWEN  =     -5990.98388734
  -Hartree energ DENC   =     -2270.92863060
  -exchange      EXHF   =         0.00000000
  -V(xc)+E(xc)   XCENC  =       431.73727408
  PAW double counting   =      7774.69012058    -8198.00503975
  entropy T*S    EENTRO =        -0.00000000
  eigenvalues    EBANDS =      -889.89413802
  atomic energy  EATOM  =      8580.16218116
  Solvation  Ediel_sol  =         0.00000000
  ---------------------------------------------------
  free energy    TOTEN  =      -111.55708035 eV

  energy without entropy =     -111.55708035  energy(sigma->0) =     -111.55708035


--------------------------------------------------------------------------------------------------------




--------------------------------------- Iteration      1(  10)  ---------------------------------------


    POTLOK:  cpu time    0.0357: real time    0.0446
    SETDIJ:  cpu time    0.9821: real time    0.9832
     EDDAV:  cpu time   12.9881: real time   13.0134
       DOS:  cpu time    0.0026: real time    0.0026
    CHARGE:  cpu time    1.0544: real time    1.0564
    MIXING:  cpu time    0.0007: real time    0.0007
    --------------------------------------------
      LOOP:  cpu time   15.0636: real time   15.1008

 eigenvalue-minimisations  : 43040
 total energy-change (2. order) : 0.1619104E-01  (-0.1368768E-01)
 number of electron      83.9999971 magnetization       0.0176923
 augmentation part       27.1613993 magnetization       0.0139370

 Broyden mixing:
  rms(total) = 0.41095E-01    rms(broyden)= 0.41076E-01
  rms(prec ) = 0.47567E-01
  weight for this iteration     100.00

 eigenvalues of (default mixing * dielectric matrix)
  average eigenvalue GAMMA=   1.2238
  2.3783  1.2001  0.9015  0.9015  0.7376

 Free energy of the ion-electron system (eV)
  ---------------------------------------------------
  alpha Z        PSCENC =       451.66503955
  Ewald energy   TEWEN  =     -5990.98388734
  -Hartree energ DENC   =     -2271.17002943
  -exchange      EXHF   =         0.00000000
  -V(xc)+E(xc)   XCENC  =       431.64397981
  PAW double counting   =      7718.50647813    -8139.59318100
  entropy T*S    EENTRO =        -0.00000000
  eigenvalues    EBANDS =      -891.77147019
  atomic energy  EATOM  =      8580.16218116
  Solvation  Ediel_sol  =         0.00000000
  ---------------------------------------------------
  free energy    TOTEN  =      -111.54088931 eV

  energy without entropy =     -111.54088931  energy(sigma->0) =     -111.54088931


--------------------------------------------------------------------------------------------------------




--------------------------------------- Iteration      1(  11)  ---------------------------------------


    POTLOK:  cpu time    0.0376: real time    0.0463
    SETDIJ:  cpu time    0.9822: real time    0.9832
     EDDAV:  cpu time   13.4865: real time   13.5156
       DOS:  cpu time    0.0019: real time    0.0019
    CHARGE:  cpu time    1.0624: real time    1.0644
    MIXING:  cpu time    0.0010: real time    0.0010
    --------------------------------------------
      LOOP:  cpu time   15.5716: real time   15.6124

 eigenvalue-minimisations  : 40240
 total energy-change (2. order) :-0.5042510E-03  (-0.1701918E-02)
 number of electron      83.9999971 magnetization       0.0082741
 augmentation part       27.1670584 magnetization       0.0055895

 Broyden mixing:
  rms(total) = 0.14063E-01    rms(broyden)= 0.14062E-01
  rms(prec ) = 0.15623E-01
  weight for this iteration     100.00

 eigenvalues of (default mixing * dielectric matrix)
  average eigenvalue GAMMA=   1.3383
  2.4731  2.1972  0.9553  0.9553  0.7986  0.6504

 Free energy of the ion-electron system (eV)
  ---------------------------------------------------
  alpha Z        PSCENC =       451.66503955
  Ewald energy   TEWEN  =     -5990.98388734
  -Hartree energ DENC   =     -2269.89462469
  -exchange      EXHF   =         0.00000000
  -V(xc)+E(xc)   XCENC  =       431.50859835
  PAW double counting   =      7709.98463578    -8131.43771325
  entropy T*S    EENTRO =        -0.00000000
  eigenvalues    EBANDS =      -892.54562312
  atomic energy  EATOM  =      8580.16218116
  Solvation  Ediel_sol  =         0.00000000
  ---------------------------------------------------
[...]
     53       9.3160      0.00000
     54       9.3719      0.00000
     55      10.1968      0.00000
     56      10.2735      0.00000
     57      10.3626      0.00000
     58      10.4246      0.00000
     59      10.6597      0.00000
     60      10.7675      0.00000
     61      10.8623      0.00000
     62      10.8722      0.00000
     63      10.8997      0.00000
     64      10.9815      0.00000

 k-point   122 :       0.4444   -0.4444    0.3333
  band No.  band energies     occupation 
      1     -38.0664      1.00000
      2     -38.0546      1.00000
      3     -38.0449      1.00000
      4     -38.0344      1.00000
      5     -18.4314      1.00000
      6     -18.4232      1.00000
      7     -18.3868      1.00000
      8     -18.3867      1.00000
      9     -18.3838      1.00000
     10     -18.3727      1.00000
     11     -18.3357      1.00000
     12     -18.3239      1.00000
     13     -18.1603      1.00000
     14     -18.1591      1.00000
     15     -18.1582      1.00000
     16     -18.1561      1.00000
     17     -10.9922      1.00000
     18     -10.9688      1.00000
     19     -10.3205      1.00000
     20     -10.2978      1.00000
     21      -4.4026      1.00000
     22      -4.3993      1.00000
     23      -4.3763      1.00000
     24      -4.3730      1.00000
     25      -4.3132      1.00000
     26      -4.2868      1.00000
     27      -4.1154      1.00000
     28      -4.0920      1.00000
     29      -4.0910      1.00000
     30      -4.0657      1.00000
     31      -0.0751      1.00000
     32      -0.0069      1.00000
     33       0.5854      1.00000
     34       0.6120      1.00000
     35       0.6483      1.00000
     36       0.6853      1.00000
     37       1.0191      1.00000
     38       1.0358      1.00000
     39       1.6890      1.00000
     40       1.7577      1.00000
     41       1.9027      1.00000
     42       1.9669      1.00000
     43       4.6401      0.00000
     44       4.6649      0.00000
     45       5.3383      0.00000
     46       5.4201      0.00000
     47       6.7823      0.00000
     48       6.8063      0.00000
     49       7.5515      0.00000
     50       7.6482      0.00000
     51       8.6633      0.00000
     52       8.6958      0.00000
     53       9.3166      0.00000
     54       9.3703      0.00000
     55      10.1968      0.00000
     56      10.2735      0.00000
     57      10.3638      0.00000
     58      10.4238      0.00000
     59      10.6601      0.00000
     60      10.7675      0.00000
     61      10.8623      0.00000
     62      10.8722      0.00000
     63      10.8996      0.00000
     64      10.9813      0.00000


--------------------------------------------------------------------------------------------------------


 soft charge-density along one line, spin component           1
         0         1         2         3         4         5         6         7         8         9
 total charge-density along one line
 
 soft charge-density along one line, spin component           2
         0         1         2         3         4         5         6         7         8         9
 total charge-density along one line
 
 pseudopotential strength for first ion, spin component:           1
-10.228   0.000   0.000  -0.000   0.000 -10.568   0.000   0.000
  0.000 -10.156   0.000  -0.000   0.000   0.000 -10.493   0.000
  0.000   0.000 -10.109   0.000  -0.000   0.000   0.000 -10.460
 -0.000  -0.000   0.000 -10.156   0.000  -0.000  -0.000   0.000
  0.000   0.000  -0.000   0.000 -10.226   0.000   0.000  -0.000
-10.568   0.000   0.000  -0.000   0.000 -10.835   0.000   0.000
  0.000 -10.493   0.000  -0.000   0.000   0.000 -10.757  -0.000
  0.000   0.000 -10.460   0.000  -0.000   0.000  -0.000 -10.737
 -0.000  -0.000   0.000 -10.493   0.000  -0.000  -0.000   0.000
  0.000   0.000  -0.000   0.000 -10.566   0.000   0.000  -0.000
 -0.000   0.000   0.031   0.000  -0.000  -0.000   0.000   0.030
 -0.000   0.000   0.053   0.000  -0.000  -0.000   0.000   0.050
 -0.000  -0.000   0.000   0.000   0.000  -0.000  -0.000   0.000
  0.000  -0.000  -0.000  -0.000   0.000   0.000  -0.000  -0.000
 -0.000   0.000   0.000  -0.000  -0.000  -0.000   0.000   0.000
 -0.000  -0.000   0.000   0.000   0.000  -0.000  -0.000   0.000
  0.000  -0.000  -0.000  -0.000   0.000   0.000  -0.000  -0.000
 -0.000   0.000   0.000  -0.000  -0.000  -0.000   0.000   0.000
 pseudopotential strength for first ion, spin component:           2
-10.228   0.000   0.000   0.000   0.000 -10.568   0.000   0.000
  0.000 -10.156   0.000  -0.000  -0.000   0.000 -10.493   0.000
  0.000   0.000 -10.109   0.000  -0.000   0.000   0.000 -10.460
  0.000  -0.000   0.000 -10.156   0.000   0.000  -0.000   0.000
  0.000  -0.000  -0.000   0.000 -10.226   0.000  -0.000  -0.000
-10.568   0.000   0.000   0.000   0.000 -10.835   0.000   0.000
  0.000 -10.493   0.000  -0.000  -0.000   0.000 -10.757   0.000
  0.000   0.000 -10.460   0.000  -0.000   0.000   0.000 -10.737
  0.000  -0.000   0.000 -10.493   0.000   0.000  -0.000   0.000
  0.000  -0.000  -0.000   0.000 -10.566  -0.000  -0.000  -0.000
 -0.000   0.000   0.031   0.000  -0.000  -0.000   0.000   0.030
 -0.000   0.000   0.053   0.000  -0.000  -0.000   0.000   0.050
 -0.000  -0.000  -0.000   0.000  -0.000  -0.000  -0.000  -0.000
  0.000  -0.000  -0.000  -0.000   0.000   0.000  -0.000  -0.000
  0.000   0.000   0.000  -0.000  -0.000   0.000   0.000   0.000
 -0.000  -0.000  -0.000   0.000  -0.000  -0.000  -0.000  -0.000
  0.000  -0.000  -0.000  -0.000   0.000   0.000  -0.000  -0.000
  0.000   0.000   0.000  -0.000  -0.000   0.000   0.000   0.000
 total augmentation occupancy for first ion, spin component:           1
  2.167  -0.000  -0.000   0.000  -0.000  -0.103   0.000   0.000  -0.000   0.000   0.000   0.000   0.000  -0.000  -0.000  -0.000
 -0.000   5.512   0.000  -0.000  -0.000   0.000  -3.253  -0.000   0.000   0.000  -0.000   0.000  -0.001  -0.000   0.000  -0.000
 -0.000   0.000   4.667  -0.000  -0.000   0.000  -0.000  -3.370   0.000   0.000  -3.031   0.792  -0.000   0.001   0.000   0.000
  0.000  -0.000  -0.000   5.512   0.000  -0.000   0.000   0.000  -3.253  -0.000  -0.000  -0.000   0.000  -0.000  -0.001  -0.000
 -0.000  -0.000  -0.000   0.000   2.426   0.000   0.000   0.000  -0.000  -0.298   0.000  -0.000   0.000   0.000   0.000  -0.000
 -0.103   0.000   0.000  -0.000   0.000   0.026  -0.000  -0.000   0.000  -0.000  -0.000   0.000  -0.000   0.000   0.000   0.000
  0.000  -3.253  -0.000   0.000   0.000  -0.000   2.985   0.000  -0.000  -0.000   0.000  -0.000   0.001   0.000  -0.000   0.000
  0.000  -0.000  -3.370   0.000   0.000  -0.000   0.000   3.999  -0.000  -0.000   3.151  -0.973   0.000  -0.001  -0.000  -0.000
 -0.000   0.000   0.000  -3.253  -0.000   0.000  -0.000  -0.000   2.985   0.000   0.000   0.000  -0.000   0.000   0.001   0.000
  0.000   0.000   0.000  -0.000  -0.298  -0.000  -0.000  -0.000   0.000   0.160  -0.000   0.000  -0.000  -0.000   0.000   0.000
  0.000  -0.000  -3.031  -0.000   0.000  -0.000   0.000   3.151   0.000  -0.000   3.460  -0.874   0.000  -0.000   0.000  -0.000
  0.000   0.000   0.792  -0.000  -0.000   0.000  -0.000  -0.973   0.000   0.000  -0.874   0.289  -0.000   0.000   0.000   0.000
  0.000  -0.001  -0.000   0.000   0.000  -0.000   0.001   0.000  -0.000  -0.000   0.000  -0.000   0.254   0.000  -0.000  -0.037
 -0.000  -0.000   0.001  -0.000   0.000   0.000   0.000  -0.001   0.000  -0.000  -0.000   0.000   0.000   1.053   0.000  -0.000
 -0.000   0.000   0.000  -0.001   0.000   0.000  -0.000  -0.000   0.001   0.000   0.000   0.000  -0.000   0.000   0.254   0.000
 -0.000  -0.000   0.000  -0.000  -0.000   0.000   0.000  -0.000   0.000   0.000  -0.000   0.000  -0.037  -0.000   0.000   0.006
  0.000   0.000  -0.000  -0.000  -0.000  -0.000  -0.000   0.000   0.000   0.000   0.000  -0.000  -0.000  -0.236   0.000   0.000
  0.000  -0.000  -0.000  -0.000  -0.000  -0.000   0.000   0.000   0.000  -0.000  -0.000   0.000   0.000   0.000  -0.037  -0.000
 total augmentation occupancy for first ion, spin component:           2
  0.000  -0.000  -0.000  -0.000  -0.000  -0.000   0.000   0.000   0.000   0.000   0.000  -0.000  -0.000  -0.000   0.000  -0.000
 -0.000   0.000  -0.000   0.000   0.000   0.000  -0.000   0.000  -0.000   0.000   0.000  -0.000  -0.000   0.000  -0.000  -0.000
 -0.000  -0.000  -0.000  -0.000   0.000   0.000   0.000   0.000   0.000  -0.000   0.000  -0.000   0.000   0.000  -0.000  -0.000
 -0.000   0.000  -0.000   0.000  -0.000   0.000  -0.000   0.000  -0.000   0.000   0.000  -0.000   0.000  -0.000   0.000  -0.000
 -0.000   0.000   0.000  -0.000   0.000   0.000   0.000   0.000   0.000  -0.000   0.000  -0.000   0.000   0.000  -0.000  -0.000
 -0.000   0.000   0.000   0.000   0.000   0.000  -0.000   0.000  -0.000  -0.000  -0.000   0.000   0.000   0.000  -0.000  -0.000
  0.000  -0.000   0.000  -0.000   0.000  -0.000   0.000  -0.000   0.000  -0.000  -0.000   0.000   0.000   0.000   0.000   0.000
  0.000   0.000   0.000   0.000   0.000   0.000  -0.000  -0.000  -0.000  -0.000  -0.000   0.000  -0.000  -0.000   0.000   0.000
  0.000  -0.000   0.000  -0.000   0.000  -0.000   0.000  -0.000   0.000  -0.000  -0.000   0.000  -0.000   0.000  -0.000   0.000
  0.000   0.000  -0.000   0.000  -0.000  -0.000  -0.000  -0.000  -0.000   0.000   0.000  -0.000  -0.000   0.000   0.000   0.000
  0.000   0.000   0.000   0.000   0.000  -0.000  -0.000  -0.000  -0.000   0.000   0.000   0.000   0.000  -0.000   0.000   0.000
 -0.000  -0.000  -0.000  -0.000  -0.000   0.000   0.000   0.000   0.000  -0.000   0.000  -0.000  -0.000   0.000  -0.000  -0.000
 -0.000  -0.000   0.000   0.000   0.000   0.000   0.000  -0.000  -0.000  -0.000   0.000  -0.000   0.000  -0.000  -0.000  -0.000
 -0.000   0.000   0.000  -0.000   0.000   0.000   0.000  -0.000   0.000   0.000  -0.000   0.000  -0.000  -0.000  -0.000   0.000
  0.000  -0.000  -0.000   0.000  -0.000  -0.000   0.000   0.000  -0.000   0.000   0.000  -0.000  -0.000  -0.000   0.000   0.000
 -0.000  -0.000  -0.000  -0.000  -0.000  -0.000   0.000   0.000   0.000   0.000   0.000  -0.000  -0.000   0.000   0.000   0.000
  0.000   0.000  -0.000  -0.000  -0.000  -0.000  -0.000   0.000  -0.000   0.000   0.000  -0.000   0.000   0.000   0.000  -0.000
 -0.000   0.000   0.000  -0.000  -0.000  -0.000  -0.000  -0.000   0.000  -0.000  -0.000   0.000   0.000   0.000  -0.000  -0.000


------------------------ aborting loop because EDIFF is reached ----------------------------------------


 


 total charge     
 
# of ion       s       p       d       tot
------------------------------------------
    1        0.694   0.643   9.761  11.098
    2        0.695   0.644   9.761  11.099
    3        2.040   5.872   0.275   8.187
    4        2.040   5.872   0.276   8.188
    5        2.040   5.872   0.276   8.188
    6        2.040   5.872   0.275   8.188
    7        1.255   2.421   0.000   3.676
    8        1.255   2.422   0.000   3.677
    9        1.255   2.422   0.000   3.677
   10        1.255   2.422   0.000   3.677
--------------------------------------------------
tot         14.569  34.462  20.623  69.654
 


 magnetization (x)
 
# of ion       s       p       d       tot
------------------------------------------
    1        0.000   0.000  -0.000   0.000
    2        0.000   0.000  -0.000   0.000
    3        0.000   0.000   0.000   0.000
    4        0.000   0.000   0.000   0.000
    5        0.000   0.000   0.000   0.000
    6        0.000   0.000   0.000   0.000
    7       -0.000  -0.000   0.000  -0.000
    8       -0.000  -0.000   0.000  -0.000
    9       -0.000  -0.000   0.000  -0.000
   10       -0.000  -0.000   0.000  -0.000
--------------------------------------------------
tot          0.000  -0.000   0.000  -0.000
 
    CHARGE:  cpu time    0.1270: real time    0.1273
    FORLOC:  cpu time    0.0007: real time    0.0007
    FORNL :  cpu time    0.6805: real time    0.6817
    STRESS:  cpu time   19.9981: real time   20.0301
    FORCOR:  cpu time    0.0291: real time    0.0297
    FORHAR:  cpu time    0.0027: real time    0.0027
    MIXING:  cpu time    0.0006: real time    0.0006
    OFIELD:  cpu time    0.0003: real time    0.0005

  FORCE on cell =-STRESS in cart. coord.  units (eV):
  Direction    XX          YY          ZZ          XY          YZ          ZX
  --------------------------------------------------------------------------------------
  Alpha Z   451.66504   451.66504   451.66504
  Ewald   -2311.91623 -2311.91173 -1367.16223    -0.00001     0.00002     0.33330
  Hartree   582.02659   582.02943  1105.91842    -0.00000     0.00002     0.22990
  E(xc)    -437.25626  -437.25598  -437.75986    -0.00000     0.00000     0.00028
  Local     717.08449   717.07684  -703.06442     0.00001    -0.00004    -0.57353
  n-local  -256.34945  -256.34941  -243.10413     0.00000     0.00000     0.00063
  augment   209.95902   209.96308   203.23871    -0.00000    -0.00000     0.00151
  Kinetic  1044.78513  1044.78654   990.25383    -0.00000    -0.00000     0.00253
  Fock        0.00000     0.00000     0.00000     0.00000     0.00000     0.00000
  -------------------------------------------------------------------------------------
  Total      -0.00166     0.00381    -0.01464     0.00000     0.00000    -0.00537
  in kB      -0.01670     0.03826    -0.14707     0.00000     0.00001    -0.05396
  external pressure =       -0.04 kB  Pullay stress =        0.00 kB


 VOLUME and BASIS-vectors are now :
 -----------------------------------------------------------------------------
  energy-cutoff  :      520.00
  volume of cell :      159.53
      direct lattice vectors                 reciprocal lattice vectors
     3.574043013  0.000000006 -0.000000042     0.279795178 -0.000000001  0.000000003
     0.000000007  3.574042987 -0.000000007    -0.000000001  0.279795180  0.000000001
    -0.000000145 -0.000000025 12.488892887     0.000000001  0.000000000  0.080071149

  length of vectors
     3.574043013  3.574042987 12.488892887     0.279795178  0.279795180  0.080071149


 FORCES acting on ions
    electron-ion (+dipol)            ewald-force                    non-local-force                 convergence-correction
 -----------------------------------------------------------------------------------------------
   0.664E-02 0.895E-05 -.130E+01   -.509E-02 -.891E-05 0.134E+01   -.124E-02 0.178E-06 -.330E-01   -.460E-06 -.248E-06 -.338E-04
   -.157E+00 -.110E-04 -.176E+00   0.158E+00 0.107E-04 0.213E+00   0.994E-03 0.362E-06 -.230E-01   0.837E-06 -.355E-07 0.432E-04
   0.546E+00 0.161E-04 -.172E+02   -.539E+00 -.154E-04 0.146E+02   -.243E-01 -.717E-06 0.249E+01   -.730E-07 -.213E-07 -.355E-04
   0.606E-02 0.928E-05 0.203E+02   -.610E-02 -.923E-05 -.178E+02   -.508E-04 -.243E-06 -.250E+01   -.351E-06 0.107E-06 0.742E-04
   -.133E-03 0.526E-06 -.224E+02   0.105E-03 -.368E-06 0.200E+02   0.151E-04 -.185E-06 0.247E+01   0.161E-07 -.187E-06 -.589E-04
   -.955E-01 -.222E-04 0.210E+02   0.102E+00 0.213E-04 -.185E+02   -.263E-02 0.129E-05 -.247E+01   0.237E-06 0.114E-06 0.145E-04
   0.596E-01 0.897E-05 -.101E+03   -.650E-01 -.871E-05 0.111E+03   0.636E-02 -.505E-06 -.101E+02   -.331E-07 0.436E-07 -.832E-04
   0.264E-03 -.779E-06 0.994E+02   -.588E-04 0.720E-06 -.110E+03   -.323E-03 -.963E-07 0.101E+02   -.863E-07 0.176E-06 0.584E-04
   -.374E-02 -.610E-05 -.100E+03   0.371E-02 0.611E-05 0.111E+03   0.111E-03 0.106E-06 -.102E+02   0.123E-06 0.112E-07 -.521E-04
   -.344E+00 -.431E-05 0.102E+03   0.351E+00 0.386E-05 -.112E+03   -.220E-02 0.740E-06 0.102E+02   0.352E-06 0.323E-07 0.742E-04
 -----------------------------------------------------------------------------------------------
   0.183E-01 -.606E-06 -.123E-01   0.844E-14 0.549E-14 -.142E-13   -.233E-01 0.925E-06 -.193E-01   0.562E-06 -.787E-08 0.108E-05
 
 
 POSITION                                       TOTAL-FORCE (eV/Angst)
 -----------------------------------------------------------------------------------
      3.57404      0.00000      0.00000         0.000759     -0.000000      0.014659
      1.78702      1.78702      6.24445         0.002705     -0.000000      0.018786
      0.00275      3.57404      4.22546        -0.016613     -0.000000     -0.107063
      0.00000      0.00000      8.27305         0.000401     -0.000000      0.016854
      1.78702      1.78702     10.46029         0.000479     -0.000000      0.014407
      1.78702      1.78702      2.02860         0.004211      0.000000      0.010331
      3.57404      0.00000      1.82057         0.001525     -0.000000      0.021344
      3.57404     -0.00000     10.66832         0.000374     -0.000000     -0.016445
      1.78702      1.78702      8.06502         0.000572      0.000000     -0.005817
      1.78702      1.78702      4.42387         0.005589      0.000000      0.032945
 -----------------------------------------------------------------------------------
    total drift:                               -0.004926      0.000000     -0.031619


--------------------------------------------------------------------------------------------------------



  FREE ENERGIE OF THE ION-ELECTRON SYSTEM (eV)
  ---------------------------------------------------
  free  energy   TOTEN  =      -111.54164033 eV

  energy  without entropy=     -111.54164033  energy(sigma->0) =     -111.54164033
 


--------------------------------------------------------------------------------------------------------


    POTLOK:  cpu time    1.0148: real time    1.0159


--------------------------------------------------------------------------------------------------------


     LOOP+:  cpu time  299.1177: real time  299.9573
    4ORBIT:  cpu time    0.0000: real time    0.0000
 


 total charge     
 
# of ion       s       p       d       tot
------------------------------------------
    1        0.694   0.643   9.761  11.098
    2        0.695   0.644   9.761  11.099
    3        2.040   5.872   0.275   8.187
    4        2.040   5.872   0.276   8.188
    5        2.040   5.872   0.276   8.188
    6        2.040   5.872   0.275   8.188
    7        1.255   2.421   0.000   3.676
    8        1.255   2.422   0.000   3.677
    9        1.255   2.422   0.000   3.677
   10        1.255   2.422   0.000   3.677
--------------------------------------------------
tot         14.569  34.462  20.623  69.654
 


 magnetization (x)
 
# of ion       s       p       d       tot
------------------------------------------
    1        0.000   0.000  -0.000   0.000
    2        0.000   0.000  -0.000   0.000
    3        0.000   0.000   0.000   0.000
    4        0.000   0.000   0.000   0.000
    5        0.000   0.000   0.000   0.000
    6        0.000   0.000   0.000   0.000
    7       -0.000  -0.000   0.000  -0.000
    8       -0.000  -0.000   0.000  -0.000
    9       -0.000  -0.000   0.000  -0.000
   10       -0.000  -0.000   0.000  -0.000
--------------------------------------------------
tot          0.000  -0.000   0.000  -0.000
 

 total amount of memory used by VASP MPI-rank0   111221. kBytes
=======================================================================

   base      :      30000. kBytes
   nonl-proj :      58361. kBytes
   fftplans  :        935. kBytes
   grid      :       3843. kBytes
   one-center:         93. kBytes
   wavefun   :      17989. kBytes
 
  
  
 General timing and accounting informations for this job:
 ========================================================
  
                  Total CPU time used (sec):      310.189
                            User time (sec):      302.485
                          System time (sec):        7.704
                         Elapsed time (sec):      311.435
  
                   Maximum memory used (kb):      180140.
                   Average memory used (kb):           0.
  
                          Minor page faults:        41887
                          Major page faults:            0
                 Voluntary context switches:          656
