 vasp.6.1.2 22Jul20 (build Apr 14 2021 21:39:43) complex                        
  
 executed on             LinuxIFC date 2022.12.02  18:35:59
 running on   64 total cores
 distrk:  each k-point on   64 cores,    1 groups
 distr:  one band on NCORE=   4 cores,   16 groups


--------------------------------------------------------------------------------------------------------


 INCAR:
 POTCAR:    PAW_PBE Sr_sv 07Sep2000               
 POTCAR:    PAW_PBE Zn 06Sep2000                  
 POTCAR:    PAW_PBE N 08Apr2002                   
 POTCAR:    PAW_PBE Sr_sv 07Sep2000               
   SHA256 =  a8389d3481648516ee67182ee030b298d280b37e29cbbf2d8595f040d757c710 Sr_sv/POTCAR          
   COPYR  = (c) Copyright 07Sep2000 Georg Kresse                                                    
   COPYR  = This file is part of the software VASP. Any use, copying, and all other rights are regul
   COPYR  = If you do not have a valid VASP license, you may not use, copy or distribute this file. 
   VRHFIN =Sr: 4s4p5s                                                                               
   LEXCH  = PE                                                                                      
   EATOM  =   843.0319 eV,   61.9611 Ry                                                             
                                                                                                    
   TITEL  = PAW_PBE Sr_sv 07Sep2000                                                                 
   LULTRA =        F    use ultrasoft PP ?                                                          
   IUNSCR =        1    unscreen: 0-lin 1-nonlin 2-no                                               
   RPACOR =    2.200    partial core radius                                                         
   POMASS =   87.620; ZVAL   =   10.000    mass and valenz                                          
   RCORE  =    2.500    outmost cutoff radius                                                       
   RWIGS  =    4.040; RWIGS  =    2.138    wigner-seitz radius (au A)                               
   ENMAX  =  229.353; ENMIN  =  172.014 eV                                                          
   RCLOC  =    2.201    cutoff for local pot                                                        
   LCOR   =        T    correct aug charges                                                         
   LPAW   =        T    paw PP                                                                      
   EAUG   =  366.804                                                                                
   DEXC   =    0.000                                                                                
   RMAX   =    2.547    core radius for proj-oper                                                   
   RAUG   =    1.300    factor for augmentation sphere                                              
   RDEP   =    2.562    radius for radial grids                                                     
   RDEPT  =    2.128    core radius for aug-charge                                                  
                                                                                                    
   Atomic configuration                                                                             
   10 entries                                                                                       
     n  l   j            E        occ.                                                              
     1  0  0.50    -15934.8930   2.0000                                                             
     2  0  0.50     -2157.6250   2.0000                                                             
     2  1  1.50     -1917.0034   6.0000                                                             
     3  0  0.50      -333.7288   2.0000                                                             
     3  1  1.50      -256.0992   6.0000                                                             
     3  2  2.50      -127.9971  10.0000                                                             
     4  0  0.50       -40.8953   2.0000                                                             
     5  0  0.50        -3.5257   1.9990                                                             
     4  1  1.50       -22.8179   6.0000                                                             
     4  2  1.50        -1.2815   0.0010                                                             
   Description                                                                                      
     l       E           TYP  RCUT    TYP  RCUT                                                     
     0    -40.8953213     23  2.480                                                                 
     0     -3.5257161     23  2.480                                                                 
     1    -22.8178632     23  2.500                                                                 
     1    -24.1784458     23  2.500                                                                 
     2     -1.2814598     23  2.500                                                                 
     2      0.2279365     23  2.500                                                                 
  local pseudopotential read in
  partial core-charges read in
  partial kinetic energy density read in
  atomic valenz-charges read in
  non local Contribution for L=           0  read in
    real space projection operators read in
  non local Contribution for L=           0  read in
    real space projection operators read in
  non local Contribution for L=           1  read in
    real space projection operators read in
  non local Contribution for L=           1  read in
    real space projection operators read in
  non local Contribution for L=           2  read in
    real space projection operators read in
  non local Contribution for L=           2  read in
    real space projection operators read in
    PAW grid and wavefunctions read in
 
   number of l-projection  operators is LMAX  =           6
   number of lm-projection operators is LMMAX =          18
 
 POTCAR:    PAW_PBE Zn 06Sep2000                  
   SHA256 =  501fddbd8274dd8e9725d4f3de27861d7f1e553a7e18441bc79fed8f346e7f23 Zn/POTCAR             
   COPYR  = (c) Copyright 06Sep2000 Georg Kresse                                                    
   COPYR  = This file is part of the software VASP. Any use, copying, and all other rights are regul
   COPYR  = If you do not have a valid VASP license, you may not use, copy or distribute this file. 
   VRHFIN =Zn: d10 p2                                                                               
   LEXCH  = PE                                                                                      
   EATOM  =  1748.8345 eV,  128.5357 Ry                                                             
                                                                                                    
   TITEL  = PAW_PBE Zn 06Sep2000                                                                    
   LULTRA =        F    use ultrasoft PP ?                                                          
   IUNSCR =        1    unscreen: 0-lin 1-nonlin 2-no                                               
   RPACOR =    2.000    partial core radius                                                         
   POMASS =   65.390; ZVAL   =   12.000    mass and valenz                                          
   RCORE  =    2.300    outmost cutoff radius                                                       
   RWIGS  =    2.400; RWIGS  =    1.270    wigner-seitz radius (au A)                               
   ENMAX  =  276.723; ENMIN  =  207.542 eV                                                          
   RCLOC  =    1.828    cutoff for local pot                                                        
   LCOR   =        T    correct aug charges                                                         
   LPAW   =        T    paw PP                                                                      
   EAUG   =  575.892                                                                                
   DEXC   =    0.000                                                                                
   RMAX   =    2.347    core radius for proj-oper                                                   
   RAUG   =    1.300    factor for augmentation sphere                                              
   RDEP   =    2.324    radius for radial grids                                                     
   RDEPT  =    1.788    core radius for aug-charge                                                  
                                                                                                    
   Atomic configuration                                                                             
    9 entries                                                                                       
     n  l   j            E        occ.                                                              
     1  0  0.50     -9524.6913   2.0000                                                             
     2  0  0.50     -1158.1882   2.0000                                                             
     2  1  1.50     -1003.8506   6.0000                                                             
     3  0  0.50      -129.2194   2.0000                                                             
     3  1  1.50       -83.3890   6.0000                                                             
     3  2  2.50       -10.1410  10.0000                                                             
     4  0  0.50        -5.9785   2.0000                                                             
     4  1  0.50        -4.0817   0.0000                                                             
     4  3  2.50        -1.3606   0.0000                                                             
   Description                                                                                      
     l       E           TYP  RCUT    TYP  RCUT                                                     
     2    -10.1410010     23  2.300                                                                 
     2    -11.5015836     23  2.300                                                                 
     0     -5.9785163     23  2.300                                                                 
     0      1.1858015     23  2.300                                                                 
     1     -2.7211652     23  2.300                                                                 
     1     13.2444212     23  2.300                                                                 
  local pseudopotential read in
  partial core-charges read in
  partial kinetic energy density read in
  atomic valenz-charges read in
  non local Contribution for L=           2  read in
    real space projection operators read in
  non local Contribution for L=           2  read in
    real space projection operators read in
  non local Contribution for L=           0  read in
    real space projection operators read in
  non local Contribution for L=           0  read in
    real space projection operators read in
  non local Contribution for L=           1  read in
    real space projection operators read in
  non local Contribution for L=           1  read in
    real space projection operators read in
    PAW grid and wavefunctions read in
 
   number of l-projection  operators is LMAX  =           6
   number of lm-projection operators is LMMAX =          18
 
 POTCAR:    PAW_PBE N 08Apr2002                   
   SHA256 =  e053789ff3a61a86a1b75d8a110fcc91f86041011e7b0817c7c99e4e8a6349d7 N/POTCAR              
   COPYR  = (c) Copyright 08Apr2002 Georg Kresse                                                    
   COPYR  = This file is part of the software VASP. Any use, copying, and all other rights are regul
   COPYR  = If you do not have a valid VASP license, you may not use, copy or distribute this file. 
   VRHFIN =N: s2p3                                                                                  
   LEXCH  = PE                                                                                      
   EATOM  =   264.5486 eV,   19.4438 Ry                                                             
                                                                                                    
   TITEL  = PAW_PBE N 08Apr2002                                                                     
   LULTRA =        F    use ultrasoft PP ?                                                          
   IUNSCR =        1    unscreen: 0-lin 1-nonlin 2-no                                               
   RPACOR =    1.200    partial core radius                                                         
   POMASS =   14.001; ZVAL   =    5.000    mass and valenz                                          
   RCORE  =    1.500    outmost cutoff radius                                                       
   RWIGS  =    1.400; RWIGS  =    0.741    wigner-seitz radius (au A)                               
   ENMAX  =  400.000; ENMIN  =  300.000 eV                                                          
   ICORE  =        2    local potential                                                             
   LCOR   =        T    correct aug charges                                                         
   LPAW   =        T    paw PP                                                                      
   EAUG   =  627.112                                                                                
   DEXC   =    0.000                                                                                
   RMAX   =    1.529    core radius for proj-oper                                                   
   RAUG   =    1.300    factor for augmentation sphere                                              
   RDEP   =    1.514    radius for radial grids                                                     
   RDEPT  =    1.338    core radius for aug-charge                                                  
                                                                                                    
   Atomic configuration                                                                             
    4 entries                                                                                       
     n  l   j            E        occ.                                                              
     1  0  0.50      -384.7179   2.0000                                                             
     2  0  0.50       -18.5828   2.0000                                                             
     2  1  0.50        -7.0898   3.0000                                                             
     3  2  1.50        -6.8029   0.0000                                                             
   Description                                                                                      
     l       E           TYP  RCUT    TYP  RCUT                                                     
     0    -18.5828119     23  1.200                                                                 
     0    -13.5018863     23  1.200                                                                 
     1     -7.0897853     23  1.500                                                                 
     1      9.5240782     23  1.500                                                                 
     2     -6.8029130      7  1.500                                                                 
  local pseudopotential read in
  partial core-charges read in
  partial kinetic energy density read in
  atomic valenz-charges read in
  non local Contribution for L=           0  read in
    real space projection operators read in
  non local Contribution for L=           0  read in
    real space projection operators read in
  non local Contribution for L=           1  read in
    real space projection operators read in
  non local Contribution for L=           1  read in
    real space projection operators read in
    PAW grid and wavefunctions read in
 
   number of l-projection  operators is LMAX  =           4
   number of lm-projection operators is LMMAX =           8
 
  PAW_PBE Sr_sv 07Sep2000               :
 energy of atom  1       EATOM= -843.0319
 kinetic energy error for atom=    0.0010 (will be added to EATOM!!)
  PAW_PBE Zn 06Sep2000                  :
 energy of atom  2       EATOM=-1748.8345
 kinetic energy error for atom=    0.0029 (will be added to EATOM!!)
  PAW_PBE N 08Apr2002                   :
 energy of atom  3       EATOM= -264.5486
 kinetic energy error for atom=    0.0125 (will be added to EATOM!!)
 
 
 POSCAR: generated by phonopy
  positions in direct lattice
  No initial velocities read in

 METAGGA = SCAN     LMAXTAU =  6    LMIXTAU =  F

 exchange correlation table for  LEXCH =        8
   RHO(1)=    0.500       N(1)  =     2000
   RHO(2)=  100.500       N(2)  =     4000
 


--------------------------------------------------------------------------------------------------------


 ion  position               nearest neighbor table
   1  0.000  1.000  0.342-   7 2.54  10 2.73  10 2.73  10 2.73  10 2.73   6 3.39   6 3.39   6 3.39
                             6 3.39   4 3.59   4 3.59   4 3.59   4 3.59   2 4.04
   2  0.000  0.000  0.658-   8 2.54   9 2.73   9 2.73   9 2.73   9 2.73   6 3.39   6 3.39   6 3.39
                             6 3.39   3 3.59   3 3.59   3 3.59   3 3.59   1 4.04
   3  0.500  0.500  0.842-   9 2.54   8 2.73   8 2.73   8 2.73   8 2.73   5 3.38   5 3.38   5 3.39
                             5 3.39   2 3.59   2 3.59   2 3.59   2 3.59   4 4.04
   4  0.500  0.500  0.158-  10 2.54   7 2.73   7 2.73   7 2.73   7 2.73   5 3.39   5 3.39   5 3.40
                             5 3.40   1 3.59   1 3.59   1 3.59   1 3.59   3 4.04
   5  0.999  0.000  0.999-   8 1.81   7 1.83   3 3.38   3 3.38   3 3.39   3 3.39   4 3.39   4 3.39
                             4 3.40   4 3.40
   6  0.500  0.500  0.500-  10 1.82   9 1.82   1 3.39   1 3.39   1 3.39   1 3.39   2 3.39   2 3.39
                             2 3.39   2 3.39
   7  1.000  0.000  0.143-   5 1.83   1 2.54   4 2.73   4 2.73   4 2.73   4 2.73
   8  1.000  0.000  0.857-   5 1.81   2 2.54   3 2.73   3 2.73   3 2.73   3 2.73
   9  0.500  0.500  0.643-   6 1.82   3 2.54   2 2.73   2 2.73   2 2.73   2 2.73
  10  0.500  0.500  0.357-   6 1.82   4 2.54   1 2.73   1 2.73   1 2.73   1 2.73
 

IMPORTANT INFORMATION: All symmetrisations will be switched off!
NOSYMM: (Re-)initialisation of all symmetry stuff for point group C_1.


----------------------------------------------------------------------------------------

                                     Primitive cell                                     

  volume of cell :     189.4114

  direct lattice vectors                    reciprocal lattice vectors
     3.851102821  0.000000006 -0.000000101     0.259665879 -0.000000000  0.000000007
     0.000000007  3.851102715 -0.000000006    -0.000000000  0.259665886  0.000000000
    -0.000000333 -0.000000021 12.771321364     0.000000002  0.000000000  0.078300434

  length of vectors
     3.851102821  3.851102715 12.771321364     0.259665879  0.259665886  0.078300434

  position of ions in fractional coordinates (direct lattice)
     0.000000015  0.999999969  0.341862114
     0.000000070  0.000000002  0.658137891
     0.500000049  0.500000008  0.841862095
     0.500000072  0.499999952  0.158137898
     0.999250327  0.000000014  0.999250592
     0.499999982  0.500000015  0.499999745
     0.999999969  0.000000005  0.142666958
     0.999999949  0.000000014  0.857332824
     0.499999967  0.500000003  0.642667132
     0.499999936  0.500000017  0.357333087

  ion indices of the primitive-cell ions
   primitive index   ion index
                 1           1
                 2           2
                 3           3
                 4           4
                 5           5
                 6           6
                 7           7
                 8           8
                 9           9
                10          10

----------------------------------------------------------------------------------------

 
 
 KPOINTS: Kpoints                                 

Automatic generation of k-mesh.
 generate k-points for:    8    8    3
Space group operators:
 irot       det(A)        alpha          n_x          n_y          n_z        tau_x        tau_y        tau_z
    1     1.000000     0.000000     1.000000     0.000000     0.000000     0.000000     0.000000     0.000000
 
 Subroutine IBZKPT returns following result:
 ===========================================
 
 Found     98 irreducible k-points:
 
 Following reciprocal coordinates:
            Coordinates               Weight
  0.000000  0.000000  0.000000      1.000000
  0.125000  0.000000  0.000000      2.000000
  0.000000  0.125000  0.000000      2.000000
  0.250000  0.000000  0.000000      2.000000
  0.000000  0.250000  0.000000      2.000000
  0.375000 -0.000000  0.000000      2.000000
  0.000000  0.375000 -0.000000      2.000000
  0.500000  0.000000  0.000000      1.000000
  0.000000  0.500000 -0.000000      1.000000
  0.125000  0.125000  0.000000      2.000000
 -0.125000  0.125000  0.000000      2.000000
  0.250000  0.125000  0.000000      2.000000
 -0.125000  0.250000  0.000000      2.000000
 -0.250000  0.125000  0.000000      2.000000
  0.125000  0.250000  0.000000      2.000000
  0.375000  0.125000  0.000000      2.000000
 -0.125000  0.375000 -0.000000      2.000000
 -0.375000  0.125000  0.000000      2.000000
  0.125000  0.375000 -0.000000      2.000000
  0.500000  0.125000  0.000000      2.000000
 -0.125000  0.500000 -0.000000      2.000000
  0.250000  0.250000  0.000000      2.000000
 -0.250000  0.250000  0.000000      2.000000
  0.375000  0.250000  0.000000      2.000000
 -0.250000  0.375000 -0.000000      2.000000
 -0.375000  0.250000  0.000000      2.000000
  0.250000  0.375000 -0.000000      2.000000
  0.500000  0.250000  0.000000      2.000000
 -0.250000  0.500000 -0.000000      2.000000
  0.375000  0.375000 -0.000000      2.000000
 -0.375000  0.375000 -0.000000      2.000000
  0.500000  0.375000 -0.000000      2.000000
 -0.375000  0.500000 -0.000000      2.000000
  0.500000  0.500000 -0.000000      1.000000
  0.000000  0.000000  0.333333      2.000000
  0.125000 -0.000000  0.333333      2.000000
 -0.000000  0.125000  0.333333      2.000000
 -0.125000 -0.000000  0.333333      2.000000
 -0.000000 -0.125000  0.333333      2.000000
  0.250000  0.000000  0.333333      2.000000
 -0.000000  0.250000  0.333333      2.000000
 -0.250000  0.000000  0.333333      2.000000
  0.000000 -0.250000  0.333333      2.000000
  0.375000 -0.000000  0.333333      2.000000
  0.000000  0.375000  0.333333      2.000000
 -0.375000  0.000000  0.333333      2.000000
  0.000000 -0.375000  0.333333      2.000000
  0.500000  0.000000  0.333333      2.000000
 -0.000000  0.500000  0.333333      2.000000
  0.125000  0.125000  0.333333      2.000000
 -0.125000  0.125000  0.333333      2.000000
 -0.125000 -0.125000  0.333333      2.000000
  0.125000 -0.125000  0.333333      2.000000
  0.250000  0.125000  0.333333      2.000000
 -0.125000  0.250000  0.333333      2.000000
 -0.250000 -0.125000  0.333333      2.000000
  0.125000 -0.250000  0.333333      2.000000
 -0.250000  0.125000 -0.333333      2.000000
  0.125000  0.250000 -0.333333      2.000000
  0.250000 -0.125000 -0.333333      2.000000
 -0.125000 -0.250000 -0.333333      2.000000
  0.375000  0.125000  0.333333      2.000000
 -0.125000  0.375000  0.333333      2.000000
 -0.375000 -0.125000  0.333333      2.000000
  0.125000 -0.375000  0.333333      2.000000
 -0.375000  0.125000 -0.333333      2.000000
  0.125000  0.375000 -0.333333      2.000000
  0.375000 -0.125000 -0.333333      2.000000
 -0.125000 -0.375000 -0.333333      2.000000
  0.500000  0.125000  0.333333      2.000000
 -0.125000  0.500000  0.333333      2.000000
  0.500000 -0.125000  0.333333      2.000000
  0.125000  0.500000  0.333333      2.000000
  0.250000  0.250000  0.333333      2.000000
 -0.250000  0.250000  0.333333      2.000000
 -0.250000 -0.250000  0.333333      2.000000
  0.250000 -0.250000  0.333333      2.000000
  0.375000  0.250000  0.333333      2.000000
 -0.250000  0.375000  0.333333      2.000000
 -0.375000 -0.250000  0.333333      2.000000
  0.250000 -0.375000  0.333333      2.000000
 -0.375000  0.250000 -0.333333      2.000000
  0.250000  0.375000 -0.333333      2.000000
  0.375000 -0.250000 -0.333333      2.000000
 -0.250000 -0.375000 -0.333333      2.000000
  0.500000  0.250000  0.333333      2.000000
 -0.250000  0.500000  0.333333      2.000000
  0.500000 -0.250000  0.333333      2.000000
  0.250000  0.500000  0.333333      2.000000
  0.375000  0.375000  0.333333      2.000000
 -0.375000  0.375000  0.333333      2.000000
 -0.375000 -0.375000  0.333333      2.000000
  0.375000 -0.375000  0.333333      2.000000
  0.500000  0.375000  0.333333      2.000000
 -0.375000  0.500000  0.333333      2.000000
  0.500000 -0.375000  0.333333      2.000000
  0.375000  0.500000  0.333333      2.000000
  0.500000  0.500000  0.333333      2.000000
 
 Following cartesian coordinates:
            Coordinates               Weight
  0.000000  0.000000  0.000000      1.000000
  0.032458 -0.000000  0.000000      2.000000
 -0.000000  0.032458  0.000000      2.000000
  0.064916 -0.000000  0.000000      2.000000
 -0.000000  0.064916  0.000000      2.000000
  0.097375 -0.000000  0.000000      2.000000
 -0.000000  0.097375  0.000000      2.000000
  0.129833 -0.000000  0.000000      1.000000
 -0.000000  0.129833  0.000000      1.000000
  0.032458  0.032458  0.000000      2.000000
 -0.032458  0.032458 -0.000000      2.000000
  0.064916  0.032458  0.000000      2.000000
 -0.032458  0.064916 -0.000000      2.000000
 -0.064916  0.032458 -0.000000      2.000000
  0.032458  0.064916  0.000000      2.000000
  0.097375  0.032458  0.000000      2.000000
 -0.032458  0.097375 -0.000000      2.000000
 -0.097375  0.032458 -0.000000      2.000000
  0.032458  0.097375  0.000000      2.000000
  0.129833  0.032458  0.000000      2.000000
 -0.032458  0.129833 -0.000000      2.000000
  0.064916  0.064916  0.000000      2.000000
 -0.064916  0.064916 -0.000000      2.000000
  0.097375  0.064916  0.000000      2.000000
 -0.064916  0.097375 -0.000000      2.000000
 -0.097375  0.064916 -0.000000      2.000000
  0.064916  0.097375  0.000000      2.000000
  0.129833  0.064916  0.000000      2.000000
 -0.064916  0.129833 -0.000000      2.000000
  0.097375  0.097375  0.000000      2.000000
 -0.097375  0.097375 -0.000000      2.000000
  0.129833  0.097375  0.000000      2.000000
 -0.097375  0.129833 -0.000000      2.000000
  0.129833  0.129833  0.000000      1.000000
  0.000000  0.000000  0.026100      2.000000
  0.032458 -0.000000  0.026100      2.000000
  0.000000  0.032458  0.026100      2.000000
 -0.032458  0.000000  0.026100      2.000000
  0.000000 -0.032458  0.026100      2.000000
  0.064916 -0.000000  0.026100      2.000000
  0.000000  0.064916  0.026100      2.000000
 -0.064916  0.000000  0.026100      2.000000
  0.000000 -0.064916  0.026100      2.000000
  0.097375 -0.000000  0.026100      2.000000
  0.000000  0.097375  0.026100      2.000000
 -0.097375  0.000000  0.026100      2.000000
  0.000000 -0.097375  0.026100      2.000000
  0.129833 -0.000000  0.026100      2.000000
  0.000000  0.129833  0.026100      2.000000
  0.032458  0.032458  0.026100      2.000000
 -0.032458  0.032458  0.026100      2.000000
 -0.032458 -0.032458  0.026100      2.000000
  0.032458 -0.032458  0.026100      2.000000
  0.064916  0.032458  0.026100      2.000000
 -0.032458  0.064916  0.026100      2.000000
 -0.064916 -0.032458  0.026100      2.000000
  0.032458 -0.064916  0.026100      2.000000
 -0.064916  0.032458 -0.026100      2.000000
  0.032458  0.064916 -0.026100      2.000000
  0.064916 -0.032458 -0.026100      2.000000
 -0.032458 -0.064916 -0.026100      2.000000
  0.097375  0.032458  0.026100      2.000000
 -0.032458  0.097375  0.026100      2.000000
 -0.097375 -0.032458  0.026100      2.000000
  0.032458 -0.097375  0.026100      2.000000
 -0.097375  0.032458 -0.026100      2.000000
  0.032458  0.097375 -0.026100      2.000000
  0.097375 -0.032458 -0.026100      2.000000
 -0.032458 -0.097375 -0.026100      2.000000
  0.129833  0.032458  0.026100      2.000000
 -0.032458  0.129833  0.026100      2.000000
  0.129833 -0.032458  0.026100      2.000000
  0.032458  0.129833  0.026100      2.000000
  0.064916  0.064916  0.026100      2.000000
 -0.064916  0.064916  0.026100      2.000000
 -0.064916 -0.064916  0.026100      2.000000
  0.064916 -0.064916  0.026100      2.000000
  0.097375  0.064916  0.026100      2.000000
 -0.064916  0.097375  0.026100      2.000000
 -0.097375 -0.064916  0.026100      2.000000
  0.064916 -0.097375  0.026100      2.000000
 -0.097375  0.064916 -0.026100      2.000000
  0.064916  0.097375 -0.026100      2.000000
  0.097375 -0.064916 -0.026100      2.000000
 -0.064916 -0.097375 -0.026100      2.000000
  0.129833  0.064916  0.026100      2.000000
 -0.064916  0.129833  0.026100      2.000000
  0.129833 -0.064916  0.026100      2.000000
  0.064916  0.129833  0.026100      2.000000
  0.097375  0.097375  0.026100      2.000000
 -0.097375  0.097375  0.026100      2.000000
 -0.097375 -0.097375  0.026100      2.000000
  0.097375 -0.097375  0.026100      2.000000
  0.129833  0.097375  0.026100      2.000000
 -0.097375  0.129833  0.026100      2.000000
  0.129833 -0.097375  0.026100      2.000000
  0.097375  0.129833  0.026100      2.000000
  0.129833  0.129833  0.026100      2.000000
 


--------------------------------------------------------------------------------------------------------




 Dimension of arrays:
   k-points           NKPTS =     98   k-points in BZ     NKDIM =     98   number of bands    NBANDS=     64
   number of dos      NEDOS =    301   number of ions     NIONS =     10
   non local maximal  LDIM  =      6   non local SUM 2l+1 LMDIM =     18
   total plane-waves  NPLWV =  86400
   max r-space proj   IRMAX =      1   max aug-charges    IRDMAX=  26943
   dimension x,y,z NGX =    30 NGY =   30 NGZ =   96
   dimension x,y,z NGXF=    60 NGYF=   60 NGZF=  192
   support grid    NGXF=    60 NGYF=   60 NGZF=  192
   ions per type =               4   2   4
   NGX,Y,Z   is equivalent  to a cutoff of  12.95, 12.95, 12.50 a.u.
   NGXF,Y,Z  is equivalent  to a cutoff of  25.90, 25.90, 24.99 a.u.

 SYSTEM =  unknown system                          
 POSCAR =  generated by phonopy                    

 Startparameter for this run:
   NWRITE =      2    write-flag & timer
   PREC   = accura    normal or accurate (medium, high low for compatibility)
   ISTART =      0    job   : 0-new  1-cont  2-samecut
   ICHARG =      2    charge: 1-file 2-atom 10-const
   ISPIN  =      2    spin polarized calculation?
   LNONCOLLINEAR =      F non collinear calculations
   LSORBIT =      F    spin-orbit coupling
   INIWAV =      1    electr: 0-lowe 1-rand  2-diag
   LASPH  =      T    aspherical Exc in radial PAW
   METAGGA=      F    non-selfconsistent MetaGGA calc.

 Electronic Relaxation 1
   ENCUT  =  520.0 eV  38.22 Ry    6.18 a.u.   7.16  7.16 23.75*2*pi/ulx,y,z
   ENINI  =  520.0     initial cutoff
   ENAUG  =  627.1 eV  augmentation charge cutoff
   NELM   =    200;   NELMIN=  6; NELMDL= -5     # of ELM steps 
   EDIFF  = 0.1E-05   stopping-criterion for ELM
   LREAL  =      F    real-space projection
   NLSPLINE    = F    spline interpolate recip. space projectors
   LCOMPAT=      F    compatible to vasp.4.4
   GGA_COMPAT  = T    GGA compatible to vasp.4.4-vasp.4.6
   LMAXPAW     = -100 max onsite density
   LMAXMIX     =    2 max onsite mixed and CHGCAR
   VOSKOWN=      0    Vosko Wilk Nusair interpolation
   ROPT   =    0.00000   0.00000   0.00000
 Ionic relaxation
   EDIFFG = -.3E-01   stopping-criterion for IOM
   NSW    =      0    number of steps for IOM
   NBLOCK =      1;   KBLOCK =      1    inner block; outer block 
   IBRION =     -1    ionic relax: 0-MD 1-quasi-New 2-CG
   NFREE  =      0    steps in history (QN), initial steepest desc. (CG)
   ISIF   =      2    stress and relaxation
   IWAVPR =     10    prediction:  0-non 1-charg 2-wave 3-comb
   ISYM   =      0    0-nonsym 1-usesym 2-fastsym
   LCORR  =      T    Harris-Foulkes like correction to forces

   POTIM  = 0.5000    time-step for ionic-motion
   TEIN   =    0.0    initial temperature
   TEBEG  =    0.0;   TEEND  =   0.0 temperature during run
   SMASS  =  -3.00    Nose mass-parameter (am)
   estimated Nose-frequenzy (Omega)   =  0.10E-29 period in steps = 0.13E+47 mass=  -0.339E-27a.u.
   SCALEE = 1.0000    scale energy and forces
   NPACO  =    256;   APACO  = 16.0  distance and # of slots for P.C.
   PSTRESS=    0.0 pullay stress

  Mass of Ions in am
   POMASS =  87.62 65.39 14.00
  Ionic Valenz
   ZVAL   =  10.00 12.00  5.00
  Atomic Wigner-Seitz radii
   RWIGS  =  -1.00 -1.00 -1.00
  virtual crystal weights 
   VCA    =   1.00  1.00  1.00
   NELECT =      84.0000    total number of electrons
   NUPDOWN=      -1.0000    fix difference up-down

 DOS related values:
   EMIN   =  10.00;   EMAX   =-10.00  energy-range for DOS
   EFERMI =   0.00
   ISMEAR =     0;   SIGMA  =   0.05  broadening in eV -4-tet -1-fermi 0-gaus

 Electronic relaxation 2 (details)
   IALGO  =     38    algorithm
   LDIAG  =      T    sub-space diagonalisation (order eigenvalues)
   LSUBROT=      F    optimize rotation matrix (better conditioning)
   TURBO    =      0    0=normal 1=particle mesh
   IRESTART =      0    0=no restart 2=restart with 2 vectors
   NREBOOT  =      0    no. of reboots
   NMIN     =      0    reboot dimension
   EREF     =   0.00    reference energy to select bands
   IMIX   =      4    mixing-type and parameters
     AMIX     =   0.40;   BMIX     =  1.00
     AMIX_MAG =   1.60;   BMIX_MAG =  1.00
     AMIN     =   0.10
     WC   =   100.;   INIMIX=   1;  MIXPRE=   1;  MAXMIX= -45

 Intra band minimization:
   WEIMIN = 0.0000     energy-eigenvalue tresh-hold
   EBREAK =  0.39E-08  absolut break condition
   DEPER  =   0.30     relativ break condition  

   TIME   =   0.40     timestep for ELM

  volume/ion in A,a.u.               =      18.94       127.82
  Fermi-wavevector in a.u.,A,eV,Ry     =   1.248435  2.359200 21.205901  1.558590
  Thomas-Fermi vector in A             =   2.382522
 
 Write flags
   LWAVE        =      F    write WAVECAR
   LDOWNSAMPLE  =      F    k-point downsampling of WAVECAR
   LCHARG       =      F    write CHGCAR
   LVTOT        =      F    write LOCPOT, total local potential
   LVHAR        =      F    write LOCPOT, Hartree potential only
   LELF         =      F    write electronic localiz. function (ELF)
   LORBIT       =     11    0 simple, 1 ext, 2 COOP (PROOUT), +10 PAW based schemes


 Dipole corrections
   LMONO  =      F    monopole corrections only (constant potential shift)
   LDIPOL =      F    correct potential (dipole corrections)
   IDIPOL =      0    1-x, 2-y, 3-z, 4-all directions 
   EPSILON=  1.0000000 bulk dielectric constant

 Exchange correlation treatment:
   GGA     =    --    GGA type
   LEXCH   =     8    internal setting for exchange type
   VOSKOWN=      0    Vosko Wilk Nusair interpolation
   LHFCALC =     F    Hartree Fock is set to
   LHFONE  =     F    Hartree Fock one center treatment
   AEXX    =    0.0000 exact exchange contribution

 Linear response parameters
   LEPSILON=     F    determine dielectric tensor
   LRPA    =     F    only Hartree local field effects (RPA)
   LNABLA  =     F    use nabla operator in PAW spheres
   LVEL    =     F    velocity operator in full k-point grid
   LINTERFAST=   F  fast interpolation
   KINTER  =     0    interpolate to denser k-point grid
   CSHIFT  =0.1000    complex shift for real part using Kramers Kronig
   OMEGAMAX=  -1.0    maximum frequency
   DEG_THRESHOLD= 0.2000000E-02 threshold for treating states as degnerate
   RTIME   =   -0.100 relaxation time in fs
  (WPLASMAI=    0.000 imaginary part of plasma frequency in eV, 0.658/RTIME)
   DFIELD  = 0.0000000 0.0000000 0.0000000 field for delta impulse in time
 
 Orbital magnetization related:
   ORBITALMAG=     F  switch on orbital magnetization
   LCHIMAG   =     F  perturbation theory with respect to B field
   DQ        =  0.001000  dq finite difference perturbation B field
   LLRAUG    =     F  two centre corrections for induced B field



--------------------------------------------------------------------------------------------------------


 Static calculation
 charge density and potential will be updated during run
 spin polarized calculation
 Variant of blocked Davidson
 Davidson routine will perform the subspace rotation
 perform sub-space diagonalisation
    after iterative eigenvector-optimisation
 modified Broyden-mixing scheme, WC =      100.0
 initial mixing is a Kerker type mixing with AMIX =  0.4000 and BMIX =      1.0000
 Hartree-type preconditioning will be used
 using additional bands           22
 reciprocal scheme for non local part
 use partial core corrections
 calculate Harris-corrections to forces 
   (improved forces if not selfconsistent)
 use gradient corrections 
 use of overlap-Matrix (Vanderbilt PP)
 Gauss-broadening in eV      SIGMA  =   0.05


--------------------------------------------------------------------------------------------------------


  energy-cutoff  :      520.00
  volume of cell :      189.41
      direct lattice vectors                 reciprocal lattice vectors
     3.851102821  0.000000006 -0.000000101     0.259665879 -0.000000000  0.000000007
     0.000000007  3.851102715 -0.000000006    -0.000000000  0.259665886  0.000000000
    -0.000000333 -0.000000021 12.771321364     0.000000002  0.000000000  0.078300434

  length of vectors
     3.851102821  3.851102715 12.771321364     0.259665879  0.259665886  0.078300434


 
 k-points in units of 2pi/SCALE and weight: Kpoints                                 
   0.00000000  0.00000000  0.00000000       0.005
   0.03245823 -0.00000000  0.00000000       0.010
  -0.00000000  0.03245824  0.00000000       0.010
   0.06491647 -0.00000000  0.00000000       0.010
  -0.00000000  0.06491647  0.00000000       0.010
   0.09737470 -0.00000000  0.00000000       0.010
  -0.00000000  0.09737471  0.00000000       0.010
   0.12983294 -0.00000000  0.00000000       0.005
  -0.00000000  0.12983294  0.00000000       0.005
   0.03245823  0.03245824  0.00000000       0.010
  -0.03245823  0.03245824 -0.00000000       0.010
   0.06491647  0.03245824  0.00000000       0.010
  -0.03245824  0.06491647 -0.00000000       0.010
  -0.06491647  0.03245824 -0.00000000       0.010
   0.03245823  0.06491647  0.00000000       0.010
   0.09737470  0.03245824  0.00000000       0.010
  -0.03245824  0.09737471 -0.00000000       0.010
  -0.09737470  0.03245824 -0.00000000       0.010
   0.03245823  0.09737471  0.00000000       0.010
   0.12983294  0.03245824  0.00000000       0.010
  -0.03245824  0.12983294 -0.00000000       0.010
   0.06491647  0.06491647  0.00000000       0.010
  -0.06491647  0.06491647 -0.00000000       0.010
   0.09737470  0.06491647  0.00000000       0.010
  -0.06491647  0.09737471 -0.00000000       0.010
  -0.09737470  0.06491647 -0.00000000       0.010
   0.06491647  0.09737471  0.00000000       0.010
   0.12983294  0.06491647  0.00000000       0.010
  -0.06491647  0.12983294 -0.00000000       0.010
   0.09737470  0.09737471  0.00000000       0.010
  -0.09737470  0.09737471 -0.00000000       0.010
   0.12983294  0.09737471  0.00000000       0.010
  -0.09737470  0.12983294 -0.00000000       0.010
   0.12983294  0.12983294  0.00000000       0.005
   0.00000000  0.00000000  0.02610014       0.010
   0.03245824 -0.00000000  0.02610015       0.010
   0.00000000  0.03245824  0.02610014       0.010
  -0.03245823  0.00000000  0.02610014       0.010
   0.00000000 -0.03245824  0.02610014       0.010
   0.06491647 -0.00000000  0.02610015       0.010
   0.00000000  0.06491647  0.02610014       0.010
  -0.06491647  0.00000000  0.02610014       0.010
   0.00000000 -0.06491647  0.02610014       0.010
   0.09737471 -0.00000000  0.02610015       0.010
   0.00000000  0.09737471  0.02610014       0.010
  -0.09737470  0.00000000  0.02610014       0.010
   0.00000000 -0.09737471  0.02610014       0.010
   0.12983294 -0.00000000  0.02610015       0.010
   0.00000000  0.12983294  0.02610014       0.010
   0.03245824  0.03245824  0.02610015       0.010
  -0.03245823  0.03245824  0.02610014       0.010
  -0.03245823 -0.03245824  0.02610014       0.010
   0.03245824 -0.03245824  0.02610015       0.010
   0.06491647  0.03245824  0.02610015       0.010
  -0.03245823  0.06491647  0.02610014       0.010
  -0.06491647 -0.03245824  0.02610014       0.010
   0.03245824 -0.06491647  0.02610015       0.010
  -0.06491647  0.03245824 -0.02610015       0.010
   0.03245823  0.06491647 -0.02610014       0.010
   0.06491647 -0.03245824 -0.02610014       0.010
  -0.03245824 -0.06491647 -0.02610015       0.010
   0.09737471  0.03245824  0.02610015       0.010
  -0.03245823  0.09737471  0.02610014       0.010
  -0.09737470 -0.03245824  0.02610014       0.010
   0.03245824 -0.09737471  0.02610015       0.010
  -0.09737471  0.03245824 -0.02610015       0.010
   0.03245823  0.09737471 -0.02610014       0.010
   0.09737470 -0.03245824 -0.02610014       0.010
  -0.03245824 -0.09737471 -0.02610015       0.010
   0.12983294  0.03245824  0.02610015       0.010
  -0.03245823  0.12983294  0.02610014       0.010
   0.12983294 -0.03245824  0.02610015       0.010
   0.03245824  0.12983294  0.02610015       0.010
   0.06491647  0.06491647  0.02610015       0.010
  -0.06491647  0.06491647  0.02610014       0.010
  -0.06491647 -0.06491647  0.02610014       0.010
   0.06491647 -0.06491647  0.02610015       0.010
   0.09737471  0.06491647  0.02610015       0.010
  -0.06491647  0.09737471  0.02610014       0.010
  -0.09737470 -0.06491647  0.02610014       0.010
   0.06491647 -0.09737471  0.02610015       0.010
  -0.09737471  0.06491647 -0.02610015       0.010
   0.06491647  0.09737471 -0.02610014       0.010
   0.09737470 -0.06491647 -0.02610014       0.010
  -0.06491647 -0.09737471 -0.02610015       0.010
   0.12983294  0.06491647  0.02610015       0.010
  -0.06491647  0.12983294  0.02610014       0.010
   0.12983294 -0.06491647  0.02610015       0.010
   0.06491647  0.12983294  0.02610015       0.010
   0.09737471  0.09737471  0.02610015       0.010
  -0.09737470  0.09737471  0.02610014       0.010
  -0.09737470 -0.09737471  0.02610014       0.010
   0.09737471 -0.09737471  0.02610015       0.010
   0.12983294  0.09737471  0.02610015       0.010
  -0.09737470  0.12983294  0.02610014       0.010
   0.12983294 -0.09737471  0.02610015       0.010
   0.09737471  0.12983294  0.02610015       0.010
   0.12983294  0.12983294  0.02610015       0.010
 
 k-points in reciprocal lattice and weights: Kpoints                                 
   0.00000000  0.00000000  0.00000000       0.005
   0.12500000  0.00000000  0.00000000       0.010
   0.00000000  0.12500000  0.00000000       0.010
   0.25000000  0.00000000  0.00000000       0.010
   0.00000000  0.25000000  0.00000000       0.010
   0.37500000 -0.00000000  0.00000000       0.010
   0.00000000  0.37500000 -0.00000000       0.010
   0.50000000  0.00000000  0.00000000       0.005
   0.00000000  0.50000000 -0.00000000       0.005
   0.12500000  0.12500000  0.00000000       0.010
  -0.12500000  0.12500000  0.00000000       0.010
   0.25000000  0.12500000  0.00000000       0.010
  -0.12500000  0.25000000  0.00000000       0.010
  -0.25000000  0.12500000  0.00000000       0.010
   0.12500000  0.25000000  0.00000000       0.010
   0.37500000  0.12500000  0.00000000       0.010
  -0.12500000  0.37500000 -0.00000000       0.010
  -0.37500000  0.12500000  0.00000000       0.010
   0.12500000  0.37500000 -0.00000000       0.010
   0.50000000  0.12500000  0.00000000       0.010
  -0.12500000  0.50000000 -0.00000000       0.010
   0.25000000  0.25000000  0.00000000       0.010
  -0.25000000  0.25000000  0.00000000       0.010
   0.37500000  0.25000000  0.00000000       0.010
  -0.25000000  0.37500000 -0.00000000       0.010
  -0.37500000  0.25000000  0.00000000       0.010
   0.25000000  0.37500000 -0.00000000       0.010
   0.50000000  0.25000000  0.00000000       0.010
  -0.25000000  0.50000000 -0.00000000       0.010
   0.37500000  0.37500000 -0.00000000       0.010
  -0.37500000  0.37500000 -0.00000000       0.010
   0.50000000  0.37500000 -0.00000000       0.010
  -0.37500000  0.50000000 -0.00000000       0.010
   0.50000000  0.50000000 -0.00000000       0.005
   0.00000000  0.00000000  0.33333333       0.010
   0.12500000 -0.00000000  0.33333333       0.010
  -0.00000000  0.12500000  0.33333333       0.010
  -0.12500000 -0.00000000  0.33333333       0.010
  -0.00000000 -0.12500000  0.33333333       0.010
   0.25000000  0.00000000  0.33333333       0.010
  -0.00000000  0.25000000  0.33333333       0.010
  -0.25000000  0.00000000  0.33333333       0.010
   0.00000000 -0.25000000  0.33333333       0.010
   0.37500000 -0.00000000  0.33333333       0.010
   0.00000000  0.37500000  0.33333333       0.010
  -0.37500000  0.00000000  0.33333333       0.010
   0.00000000 -0.37500000  0.33333333       0.010
   0.50000000  0.00000000  0.33333333       0.010
  -0.00000000  0.50000000  0.33333333       0.010
   0.12500000  0.12500000  0.33333333       0.010
  -0.12500000  0.12500000  0.33333333       0.010
  -0.12500000 -0.12500000  0.33333333       0.010
   0.12500000 -0.12500000  0.33333333       0.010
   0.25000000  0.12500000  0.33333333       0.010
  -0.12500000  0.25000000  0.33333333       0.010
  -0.25000000 -0.12500000  0.33333333       0.010
   0.12500000 -0.25000000  0.33333333       0.010
  -0.25000000  0.12500000 -0.33333333       0.010
   0.12500000  0.25000000 -0.33333333       0.010
   0.25000000 -0.12500000 -0.33333333       0.010
  -0.12500000 -0.25000000 -0.33333333       0.010
   0.37500000  0.12500000  0.33333333       0.010
  -0.12500000  0.37500000  0.33333333       0.010
  -0.37500000 -0.12500000  0.33333333       0.010
   0.12500000 -0.37500000  0.33333333       0.010
  -0.37500000  0.12500000 -0.33333333       0.010
   0.12500000  0.37500000 -0.33333333       0.010
   0.37500000 -0.12500000 -0.33333333       0.010
  -0.12500000 -0.37500000 -0.33333333       0.010
   0.50000000  0.12500000  0.33333333       0.010
  -0.12500000  0.50000000  0.33333333       0.010
   0.50000000 -0.12500000  0.33333333       0.010
   0.12500000  0.50000000  0.33333333       0.010
   0.25000000  0.25000000  0.33333333       0.010
  -0.25000000  0.25000000  0.33333333       0.010
  -0.25000000 -0.25000000  0.33333333       0.010
   0.25000000 -0.25000000  0.33333333       0.010
   0.37500000  0.25000000  0.33333333       0.010
  -0.25000000  0.37500000  0.33333333       0.010
  -0.37500000 -0.25000000  0.33333333       0.010
   0.25000000 -0.37500000  0.33333333       0.010
  -0.37500000  0.25000000 -0.33333333       0.010
   0.25000000  0.37500000 -0.33333333       0.010
   0.37500000 -0.25000000 -0.33333333       0.010
  -0.25000000 -0.37500000 -0.33333333       0.010
   0.50000000  0.25000000  0.33333333       0.010
  -0.25000000  0.50000000  0.33333333       0.010
   0.50000000 -0.25000000  0.33333333       0.010
   0.25000000  0.50000000  0.33333333       0.010
   0.37500000  0.37500000  0.33333333       0.010
  -0.37500000  0.37500000  0.33333333       0.010
  -0.37500000 -0.37500000  0.33333333       0.010
   0.37500000 -0.37500000  0.33333333       0.010
   0.50000000  0.37500000  0.33333333       0.010
  -0.37500000  0.50000000  0.33333333       0.010
   0.50000000 -0.37500000  0.33333333       0.010
   0.37500000  0.50000000  0.33333333       0.010
   0.50000000  0.50000000  0.33333333       0.010
 
 position of ions in fractional coordinates (direct lattice) 
   0.00000002  0.99999997  0.34186211
   0.00000007  0.00000000  0.65813789
   0.50000005  0.50000001  0.84186210
   0.50000007  0.49999995  0.15813790
   0.99925033  0.00000001  0.99925059
   0.49999998  0.50000002  0.49999974
   0.99999997  0.00000001  0.14266696
   0.99999995  0.00000001  0.85733282
   0.49999997  0.50000000  0.64266713
   0.49999994  0.50000002  0.35733309
 
 position of ions in cartesian coordinates  (Angst):
  -0.00000005  3.85110259  4.36603091
   0.00000005 -0.00000001  8.40529051
   1.92555132  1.92555137 10.75169131
   1.92555164  1.92555117  2.01962986
   3.84821542  0.00000004 12.76175033
   1.92555118  1.92555141  6.38565737
   3.85110265  0.00000002  1.82204547
   3.85110234  0.00000004 10.94927291
   1.92555107  1.92555136  8.20770842
   1.92555105  1.92555142  4.56361564
 


--------------------------------------------------------------------------------------------------------


 k-point   1 :   0.0000 0.0000 0.0000  plane waves:    5047
 k-point   2 :   0.1250 0.0000 0.0000  plane waves:    5075
 k-point   3 :   0.0000 0.1250 0.0000  plane waves:    5075
 k-point   4 :   0.2500 0.0000 0.0000  plane waves:    5094
 k-point   5 :   0.0000 0.2500 0.0000  plane waves:    5094
 k-point   6 :   0.3750-0.0000 0.0000  plane waves:    5118
 k-point   7 :   0.0000 0.3750-0.0000  plane waves:    5118
 k-point   8 :   0.5000 0.0000 0.0000  plane waves:    5078
 k-point   9 :   0.0000 0.5000-0.0000  plane waves:    5078
 k-point  10 :   0.1250 0.1250 0.0000  plane waves:    5074
 k-point  11 :  -0.1250 0.1250 0.0000  plane waves:    5074
 k-point  12 :   0.2500 0.1250 0.0000  plane waves:    5086
 k-point  13 :  -0.1250 0.2500 0.0000  plane waves:    5086
 k-point  14 :  -0.2500 0.1250 0.0000  plane waves:    5086
 k-point  15 :   0.1250 0.2500 0.0000  plane waves:    5086
 k-point  16 :   0.3750 0.1250 0.0000  plane waves:    5116
 k-point  17 :  -0.1250 0.3750-0.0000  plane waves:    5116
 k-point  18 :  -0.3750 0.1250 0.0000  plane waves:    5116
 k-point  19 :   0.1250 0.3750-0.0000  plane waves:    5116
 k-point  20 :   0.5000 0.1250 0.0000  plane waves:    5118
 k-point  21 :  -0.1250 0.5000-0.0000  plane waves:    5118
 k-point  22 :   0.2500 0.2500 0.0000  plane waves:    5110
 k-point  23 :  -0.2500 0.2500 0.0000  plane waves:    5110
 k-point  24 :   0.3750 0.2500 0.0000  plane waves:    5096
 k-point  25 :  -0.2500 0.3750-0.0000  plane waves:    5096
 k-point  26 :  -0.3750 0.2500 0.0000  plane waves:    5096
 k-point  27 :   0.2500 0.3750-0.0000  plane waves:    5096
 k-point  28 :   0.5000 0.2500 0.0000  plane waves:    5114
 k-point  29 :  -0.2500 0.5000-0.0000  plane waves:    5114
 k-point  30 :   0.3750 0.3750-0.0000  plane waves:    5108
 k-point  31 :  -0.3750 0.3750-0.0000  plane waves:    5108
 k-point  32 :   0.5000 0.3750-0.0000  plane waves:    5112
 k-point  33 :  -0.3750 0.5000-0.0000  plane waves:    5112
 k-point  34 :   0.5000 0.5000-0.0000  plane waves:    5108
 k-point  35 :   0.0000 0.0000 0.3333  plane waves:    5076
 k-point  36 :   0.1250-0.0000 0.3333  plane waves:    5077
 k-point  37 :  -0.0000 0.1250 0.3333  plane waves:    5077
 k-point  38 :  -0.1250-0.0000 0.3333  plane waves:    5077
 k-point  39 :  -0.0000-0.1250 0.3333  plane waves:    5077
 k-point  40 :   0.2500 0.0000 0.3333  plane waves:    5108
 k-point  41 :  -0.0000 0.2500 0.3333  plane waves:    5108
 k-point  42 :  -0.2500 0.0000 0.3333  plane waves:    5108
 k-point  43 :   0.0000-0.2500 0.3333  plane waves:    5108
 k-point  44 :   0.3750-0.0000 0.3333  plane waves:    5113
 k-point  45 :   0.0000 0.3750 0.3333  plane waves:    5113
 k-point  46 :  -0.3750 0.0000 0.3333  plane waves:    5113
 k-point  47 :   0.0000-0.3750 0.3333  plane waves:    5113
 k-point  48 :   0.5000 0.0000 0.3333  plane waves:    5106
 k-point  49 :  -0.0000 0.5000 0.3333  plane waves:    5106
 k-point  50 :   0.1250 0.1250 0.3333  plane waves:    5078
 k-point  51 :  -0.1250 0.1250 0.3333  plane waves:    5078
 k-point  52 :  -0.1250-0.1250 0.3333  plane waves:    5078
 k-point  53 :   0.1250-0.1250 0.3333  plane waves:    5078
 k-point  54 :   0.2500 0.1250 0.3333  plane waves:    5094
 k-point  55 :  -0.1250 0.2500 0.3333  plane waves:    5094
 k-point  56 :  -0.2500-0.1250 0.3333  plane waves:    5094
 k-point  57 :   0.1250-0.2500 0.3333  plane waves:    5094
 k-point  58 :  -0.2500 0.1250-0.3333  plane waves:    5094
 k-point  59 :   0.1250 0.2500-0.3333  plane waves:    5094
 k-point  60 :   0.2500-0.1250-0.3333  plane waves:    5094
 k-point  61 :  -0.1250-0.2500-0.3333  plane waves:    5094
 k-point  62 :   0.3750 0.1250 0.3333  plane waves:    5108
 k-point  63 :  -0.1250 0.3750 0.3333  plane waves:    5108
 k-point  64 :  -0.3750-0.1250 0.3333  plane waves:    5108
 k-point  65 :   0.1250-0.3750 0.3333  plane waves:    5108
 k-point  66 :  -0.3750 0.1250-0.3333  plane waves:    5108
 k-point  67 :   0.1250 0.3750-0.3333  plane waves:    5108
 k-point  68 :   0.3750-0.1250-0.3333  plane waves:    5108
 k-point  69 :  -0.1250-0.3750-0.3333  plane waves:    5108
 k-point  70 :   0.5000 0.1250 0.3333  plane waves:    5112
 k-point  71 :  -0.1250 0.5000 0.3333  plane waves:    5112
 k-point  72 :   0.5000-0.1250 0.3333  plane waves:    5112
 k-point  73 :   0.1250 0.5000 0.3333  plane waves:    5112
 k-point  74 :   0.2500 0.2500 0.3333  plane waves:    5099
 k-point  75 :  -0.2500 0.2500 0.3333  plane waves:    5099
 k-point  76 :  -0.2500-0.2500 0.3333  plane waves:    5099
 k-point  77 :   0.2500-0.2500 0.3333  plane waves:    5099
 k-point  78 :   0.3750 0.2500 0.3333  plane waves:    5095
 k-point  79 :  -0.2500 0.3750 0.3333  plane waves:    5095
 k-point  80 :  -0.3750-0.2500 0.3333  plane waves:    5095
 k-point  81 :   0.2500-0.3750 0.3333  plane waves:    5095
 k-point  82 :  -0.3750 0.2500-0.3333  plane waves:    5095
 k-point  83 :   0.2500 0.3750-0.3333  plane waves:    5095
 k-point  84 :   0.3750-0.2500-0.3333  plane waves:    5095
 k-point  85 :  -0.2500-0.3750-0.3333  plane waves:    5095
 k-point  86 :   0.5000 0.2500 0.3333  plane waves:    5090
 k-point  87 :  -0.2500 0.5000 0.3333  plane waves:    5090
 k-point  88 :   0.5000-0.2500 0.3333  plane waves:    5090
 k-point  89 :   0.2500 0.5000 0.3333  plane waves:    5090
 k-point  90 :   0.3750 0.3750 0.3333  plane waves:    5110
 k-point  91 :  -0.3750 0.3750 0.3333  plane waves:    5110
 k-point  92 :  -0.3750-0.3750 0.3333  plane waves:    5110
 k-point  93 :   0.3750-0.3750 0.3333  plane waves:    5110
 k-point  94 :   0.5000 0.3750 0.3333  plane waves:    5114
 k-point  95 :  -0.3750 0.5000 0.3333  plane waves:    5114
 k-point  96 :   0.5000-0.3750 0.3333  plane waves:    5114
 k-point  97 :   0.3750 0.5000 0.3333  plane waves:    5114
 k-point  98 :   0.5000 0.5000 0.3333  plane waves:    5136

 maximum and minimum number of plane-waves per node :      1303     1249

 maximum number of plane-waves:      5136
 maximum index in each direction: 
   IXMAX=    7   IYMAX=    7   IZMAX=   24
   IXMIN=   -7   IYMIN=   -7   IZMIN=  -24


 parallel 3D FFT for wavefunctions:
    minimum data exchange during FFTs selected (reduces bandwidth)
 parallel 3D FFT for charge:
    minimum data exchange during FFTs selected (reduces bandwidth)


 total amount of memory used by VASP MPI-rank0   107651. kBytes
=======================================================================

   base      :      30000. kBytes
   nonl-proj :      55074. kBytes
   fftplans  :       1092. kBytes
   grid      :       4533. kBytes
   one-center:         93. kBytes
   wavefun   :      16859. kBytes
 
     INWAV:  cpu time    0.0000: real time    0.0000
 Broyden mixing: mesh for mixing (old mesh)
   NGX = 15   NGY = 15   NGZ = 47
  (NGX  = 60   NGY  = 60   NGZ  =192)
  gives a total of  10575 points

 initial charge density was supplied:
 charge density of overlapping atoms calculated
 number of electron      84.0000000 magnetization       0.6000000
 keeping initial charge density in first step


--------------------------------------------------------------------------------------------------------


 Maximum index for augmentation-charges         1050 (set IRDMAX)


--------------------------------------------------------------------------------------------------------


 First call to EWALD:  gamma=   0.309
 Maximum number of real-space cells 4x 4x 2
 Maximum number of reciprocal cells 2x 2x 6

    FEWALD:  cpu time    0.0016: real time    0.0018


--------------------------------------- Iteration      1(   1)  ---------------------------------------


    POTLOK:  cpu time    0.0424: real time    0.0697
    SETDIJ:  cpu time    0.9024: real time    0.9026
     EDDAV:  cpu time    9.6565: real time    9.6665
       DOS:  cpu time    0.0042: real time    0.0043
    --------------------------------------------
      LOOP:  cpu time   10.6054: real time   10.6430

 eigenvalue-minimisations  : 25088
 total energy-change (2. order) : 0.5390806E+03  (-0.4084870E+04)
 number of electron      84.0000000 magnetization       0.6000000
 augmentation part       84.0000000 magnetization       0.6000000

 Free energy of the ion-electron system (eV)
  ---------------------------------------------------
  alpha Z        PSCENC =       487.77386565
  Ewald energy   TEWEN  =     -5605.53882760
  -Hartree energ DENC   =     -2138.94018021
  -exchange      EXHF   =         0.00000000
  -V(xc)+E(xc)   XCENC  =       389.55629062
  PAW double counting   =      6184.04713378    -6608.31218866
  entropy T*S    EENTRO =        -0.00317312
  eigenvalues    EBANDS =       -97.43325919
  atomic energy  EATOM  =      7927.93097991
  Solvation  Ediel_sol  =         0.00000000
  ---------------------------------------------------
  free energy    TOTEN  =       539.08064118 eV

  energy without entropy =      539.08381429  energy(sigma->0) =      539.08222774


--------------------------------------------------------------------------------------------------------




--------------------------------------- Iteration      1(   2)  ---------------------------------------


     EDDAV:  cpu time    9.8348: real time    9.8414
       DOS:  cpu time    0.0019: real time    0.0019
    --------------------------------------------
      LOOP:  cpu time    9.8367: real time    9.8433

 eigenvalue-minimisations  : 26128
 total energy-change (2. order) :-0.6576577E+03  (-0.6165294E+03)
 number of electron      84.0000000 magnetization       0.6000000
 augmentation part       84.0000000 magnetization       0.6000000

 Free energy of the ion-electron system (eV)
  ---------------------------------------------------
  alpha Z        PSCENC =       487.77386565
  Ewald energy   TEWEN  =     -5605.53882760
  -Hartree energ DENC   =     -2138.94018021
  -exchange      EXHF   =         0.00000000
  -V(xc)+E(xc)   XCENC  =       389.55629062
  PAW double counting   =      6184.04713378    -6608.31218866
  entropy T*S    EENTRO =        -0.00000000
  eigenvalues    EBANDS =      -755.09410316
  atomic energy  EATOM  =      7927.93097991
  Solvation  Ediel_sol  =         0.00000000
  ---------------------------------------------------
  free energy    TOTEN  =      -118.57702968 eV

  energy without entropy =     -118.57702968  energy(sigma->0) =     -118.57702968


--------------------------------------------------------------------------------------------------------




--------------------------------------- Iteration      1(   3)  ---------------------------------------


     EDDAV:  cpu time   12.8342: real time   12.8544
       DOS:  cpu time    0.0016: real time    0.0016
    --------------------------------------------
      LOOP:  cpu time   12.8358: real time   12.8560

 eigenvalue-minimisations  : 37040
 total energy-change (2. order) :-0.7730404E+02  (-0.7617405E+02)
 number of electron      84.0000000 magnetization       0.6000000
 augmentation part       84.0000000 magnetization       0.6000000

 Free energy of the ion-electron system (eV)
  ---------------------------------------------------
  alpha Z        PSCENC =       487.77386565
  Ewald energy   TEWEN  =     -5605.53882760
  -Hartree energ DENC   =     -2138.94018021
  -exchange      EXHF   =         0.00000000
  -V(xc)+E(xc)   XCENC  =       389.55629062
  PAW double counting   =      6184.04713378    -6608.31218866
  entropy T*S    EENTRO =        -0.00000000
  eigenvalues    EBANDS =      -832.39814230
  atomic energy  EATOM  =      7927.93097991
  Solvation  Ediel_sol  =         0.00000000
  ---------------------------------------------------
  free energy    TOTEN  =      -195.88106882 eV

  energy without entropy =     -195.88106882  energy(sigma->0) =     -195.88106882


--------------------------------------------------------------------------------------------------------




--------------------------------------- Iteration      1(   4)  ---------------------------------------


     EDDAV:  cpu time   13.8655: real time   13.8841
       DOS:  cpu time    0.0017: real time    0.0017
    --------------------------------------------
      LOOP:  cpu time   13.8672: real time   13.8858

 eigenvalue-minimisations  : 41056
 total energy-change (2. order) :-0.3936960E+01  (-0.3891433E+01)
 number of electron      84.0000000 magnetization       0.6000000
 augmentation part       84.0000000 magnetization       0.6000000

 Free energy of the ion-electron system (eV)
  ---------------------------------------------------
  alpha Z        PSCENC =       487.77386565
  Ewald energy   TEWEN  =     -5605.53882760
  -Hartree energ DENC   =     -2138.94018021
  -exchange      EXHF   =         0.00000000
  -V(xc)+E(xc)   XCENC  =       389.55629062
  PAW double counting   =      6184.04713378    -6608.31218866
  entropy T*S    EENTRO =        -0.00000000
  eigenvalues    EBANDS =      -836.33510206
  atomic energy  EATOM  =      7927.93097991
  Solvation  Ediel_sol  =         0.00000000
  ---------------------------------------------------
  free energy    TOTEN  =      -199.81802858 eV

  energy without entropy =     -199.81802858  energy(sigma->0) =     -199.81802858


--------------------------------------------------------------------------------------------------------




--------------------------------------- Iteration      1(   5)  ---------------------------------------


     EDDAV:  cpu time   11.7935: real time   11.7946
       DOS:  cpu time    0.0017: real time    0.0017
    CHARGE:  cpu time    1.0202: real time    1.0204
    MIXING:  cpu time    0.0029: real time    0.0031
    --------------------------------------------
      LOOP:  cpu time   12.8183: real time   12.8197

 eigenvalue-minimisations  : 33712
 total energy-change (2. order) :-0.6709669E-01  (-0.6708595E-01)
 number of electron      83.9999983 magnetization       0.4129216
 augmentation part       17.7284160 magnetization       0.4396623

 Broyden mixing:
  rms(total) = 0.35359E+01    rms(broyden)= 0.35357E+01
  rms(prec ) = 0.39000E+01
  weight for this iteration     100.00

 Free energy of the ion-electron system (eV)
  ---------------------------------------------------
  alpha Z        PSCENC =       487.77386565
  Ewald energy   TEWEN  =     -5605.53882760
  -Hartree energ DENC   =     -2138.94018021
  -exchange      EXHF   =         0.00000000
  -V(xc)+E(xc)   XCENC  =       389.55629062
  PAW double counting   =      6184.04713378    -6608.31218866
  entropy T*S    EENTRO =        -0.00000000
  eigenvalues    EBANDS =      -836.40219875
  atomic energy  EATOM  =      7927.93097991
  Solvation  Ediel_sol  =         0.00000000
  ---------------------------------------------------
  free energy    TOTEN  =      -199.88512527 eV

  energy without entropy =     -199.88512527  energy(sigma->0) =     -199.88512527


--------------------------------------------------------------------------------------------------------




--------------------------------------- Iteration      1(   6)  ---------------------------------------


    POTLOK:  cpu time    0.0421: real time    0.0721
    SETDIJ:  cpu time    0.8883: real time    0.8885
     EDDAV:  cpu time   14.1214: real time   14.1278
       DOS:  cpu time    0.0022: real time    0.0022
    CHARGE:  cpu time    1.0045: real time    1.0046
    MIXING:  cpu time    0.0010: real time    0.0011
    --------------------------------------------
      LOOP:  cpu time   16.0597: real time   16.0963

 eigenvalue-minimisations  : 42224
 total energy-change (2. order) : 0.4065112E+02  (-0.4449299E+01)
 number of electron      83.9999981 magnetization       0.2888216
 augmentation part       19.0309897 magnetization       0.2793768

 Broyden mixing:
  rms(total) = 0.29099E+01    rms(broyden)= 0.29098E+01
  rms(prec ) = 0.29266E+01
  weight for this iteration     100.00

 eigenvalues of (default mixing * dielectric matrix)
  average eigenvalue GAMMA=   0.9387
  0.9387

 Free energy of the ion-electron system (eV)
  ---------------------------------------------------
  alpha Z        PSCENC =       487.77386565
  Ewald energy   TEWEN  =     -5605.53882760
  -Hartree energ DENC   =     -2153.72069800
  -exchange      EXHF   =         0.00000000
  -V(xc)+E(xc)   XCENC  =       408.54123267
  PAW double counting   =      7788.02218633    -8204.59806196
  entropy T*S    EENTRO =        -0.00000000
  eigenvalues    EBANDS =      -807.64468462
  atomic energy  EATOM  =      7927.93097991
  Solvation  Ediel_sol  =         0.00000000
  ---------------------------------------------------
  free energy    TOTEN  =      -159.23400762 eV

  energy without entropy =     -159.23400762  energy(sigma->0) =     -159.23400762


--------------------------------------------------------------------------------------------------------




--------------------------------------- Iteration      1(   7)  ---------------------------------------


    POTLOK:  cpu time    0.0382: real time    0.0603
    SETDIJ:  cpu time    0.8935: real time    0.8936
     EDDAV:  cpu time   11.7729: real time   11.7740
       DOS:  cpu time    0.0016: real time    0.0016
    CHARGE:  cpu time    1.0162: real time    1.0163
    MIXING:  cpu time    0.0005: real time    0.0005
    --------------------------------------------
      LOOP:  cpu time   13.7228: real time   13.7462

 eigenvalue-minimisations  : 33536
 total energy-change (2. order) :-0.1586381E+01  (-0.1596457E+01)
 number of electron      83.9999981 magnetization       0.1201758
 augmentation part       18.6717588 magnetization       0.1079993

 Broyden mixing:
  rms(total) = 0.19926E+01    rms(broyden)= 0.19926E+01
  rms(prec ) = 0.20131E+01
  weight for this iteration     100.00

 eigenvalues of (default mixing * dielectric matrix)
  average eigenvalue GAMMA=   1.4807
  1.1298  1.8315

 Free energy of the ion-electron system (eV)
  ---------------------------------------------------
  alpha Z        PSCENC =       487.77386565
  Ewald energy   TEWEN  =     -5605.53882760
  -Hartree energ DENC   =     -2165.28197607
  -exchange      EXHF   =         0.00000000
  -V(xc)+E(xc)   XCENC  =       407.26230582
  PAW double counting   =      8954.94526298    -9391.41753733
  entropy T*S    EENTRO =        -0.00000000
  eigenvalues    EBANDS =      -776.49446151
  atomic energy  EATOM  =      7927.93097991
  Solvation  Ediel_sol  =         0.00000000
  ---------------------------------------------------
  free energy    TOTEN  =      -160.82038817 eV

  energy without entropy =     -160.82038817  energy(sigma->0) =     -160.82038817


--------------------------------------------------------------------------------------------------------




--------------------------------------- Iteration      1(   8)  ---------------------------------------


    POTLOK:  cpu time    0.0383: real time    0.0383
    SETDIJ:  cpu time    0.8943: real time    0.8944
     EDDAV:  cpu time   11.7369: real time   11.7379
       DOS:  cpu time    0.0021: real time    0.0021
    CHARGE:  cpu time    1.0041: real time    1.0042
    MIXING:  cpu time    0.0009: real time    0.0009
    --------------------------------------------
      LOOP:  cpu time   13.6766: real time   13.6778

 eigenvalue-minimisations  : 33392
 total energy-change (2. order) :-0.2705990E+00  (-0.4468199E+00)
 number of electron      83.9999982 magnetization       0.0660762
 augmentation part       18.9734757 magnetization       0.0615237

 Broyden mixing:
  rms(total) = 0.45180E+00    rms(broyden)= 0.45176E+00
  rms(prec ) = 0.53917E+00
  weight for this iteration     100.00

 eigenvalues of (default mixing * dielectric matrix)
  average eigenvalue GAMMA=   1.3082
  2.2048  0.8599  0.8599

 Free energy of the ion-electron system (eV)
  ---------------------------------------------------
  alpha Z        PSCENC =       487.77386565
  Ewald energy   TEWEN  =     -5605.53882760
  -Hartree energ DENC   =     -2133.66590723
  -exchange      EXHF   =         0.00000000
  -V(xc)+E(xc)   XCENC  =       404.92868992
  PAW double counting   =     10659.87894890   -11103.07447251
  entropy T*S    EENTRO =        -0.00000000
  eigenvalues    EBANDS =      -799.32426423
  atomic energy  EATOM  =      7927.93097991
  Solvation  Ediel_sol  =         0.00000000
  ---------------------------------------------------
  free energy    TOTEN  =      -161.09098720 eV

  energy without entropy =     -161.09098720  energy(sigma->0) =     -161.09098720


--------------------------------------------------------------------------------------------------------




--------------------------------------- Iteration      1(   9)  ---------------------------------------


    POTLOK:  cpu time    0.0407: real time    0.0642
    SETDIJ:  cpu time    0.8954: real time    0.8955
     EDDAV:  cpu time   11.6863: real time   11.6873
       DOS:  cpu time    0.0020: real time    0.0020
    CHARGE:  cpu time    1.0021: real time    1.0022
    MIXING:  cpu time    0.0005: real time    0.0005
    --------------------------------------------
      LOOP:  cpu time   13.6270: real time   13.6516

 eigenvalue-minimisations  : 33296
 total energy-change (2. order) : 0.3597447E+00  (-0.1329953E+00)
 number of electron      83.9999982 magnetization       0.0469855
 augmentation part       18.8109995 magnetization       0.0398214

 Broyden mixing:
  rms(total) = 0.14873E+00    rms(broyden)= 0.14872E+00
  rms(prec ) = 0.15837E+00
  weight for this iteration     100.00

 eigenvalues of (default mixing * dielectric matrix)
  average eigenvalue GAMMA=   1.1443
  2.2991  0.8660  0.8660  0.5460

 Free energy of the ion-electron system (eV)
  ---------------------------------------------------
  alpha Z        PSCENC =       487.77386565
  Ewald energy   TEWEN  =     -5605.53882760
  -Hartree energ DENC   =     -2146.79228300
  -exchange      EXHF   =         0.00000000
  -V(xc)+E(xc)   XCENC  =       406.44937134
  PAW double counting   =     10912.20001052   -11361.44222206
  entropy T*S    EENTRO =        -0.00000000
  eigenvalues    EBANDS =      -781.31213723
  atomic energy  EATOM  =      7927.93097991
  Solvation  Ediel_sol  =         0.00000000
  ---------------------------------------------------
  free energy    TOTEN  =      -160.73124248 eV

  energy without entropy =     -160.73124248  energy(sigma->0) =     -160.73124248


--------------------------------------------------------------------------------------------------------




--------------------------------------- Iteration      1(  10)  ---------------------------------------


    POTLOK:  cpu time    0.0481: real time    0.0587
    SETDIJ:  cpu time    0.8955: real time    0.8956
     EDDAV:  cpu time   11.2019: real time   11.2106
       DOS:  cpu time    0.0024: real time    0.0024
    CHARGE:  cpu time    1.0129: real time    1.0130
    MIXING:  cpu time    0.0006: real time    0.0006
    --------------------------------------------
      LOOP:  cpu time   13.1612: real time   13.1808

 eigenvalue-minimisations  : 31200
 total energy-change (2. order) : 0.4616368E-02  (-0.1271467E-01)
 number of electron      83.9999981 magnetization       0.0298898
 augmentation part       18.8108733 magnetization       0.0240368

 Broyden mixing:
  rms(total) = 0.94635E-01    rms(broyden)= 0.94629E-01
  rms(prec ) = 0.96902E-01
  weight for this iteration     100.00

 eigenvalues of (default mixing * dielectric matrix)
  average eigenvalue GAMMA=   1.1267
  2.4501  0.9845  0.8442  0.8442  0.5105

 Free energy of the ion-electron system (eV)
  ---------------------------------------------------
  alpha Z        PSCENC =       487.77386565
  Ewald energy   TEWEN  =     -5605.53882760
  -Hartree energ DENC   =     -2147.15613495
  -exchange      EXHF   =         0.00000000
  -V(xc)+E(xc)   XCENC  =       406.14558100
  PAW double counting   =     10960.99778010   -11410.71029351
  entropy T*S    EENTRO =        -0.00000000
  eigenvalues    EBANDS =      -780.16957671
  atomic energy  EATOM  =      7927.93097991
  Solvation  Ediel_sol  =         0.00000000
  ---------------------------------------------------
  free energy    TOTEN  =      -160.72662611 eV

  energy without entropy =     -160.72662611  energy(sigma->0) =     -160.72662611


--------------------------------------------------------------------------------------------------------




--------------------------------------- Iteration      1(  11)  ---------------------------------------


    POTLOK:  cpu time    0.0377: real time    0.0377
    SETDIJ:  cpu time    0.8890: real time    0.8891
     EDDAV:  cpu time   12.0206: real time   12.0218
       DOS:  cpu time    0.0018: real time    0.0018
    CHARGE:  cpu time    1.0090: real time    1.0091
    MIXING:  cpu time    0.0007: real time    0.0007
    --------------------------------------------
      LOOP:  cpu time   13.9588: real time   13.9601

 eigenvalue-minimisations  : 34608
 total energy-change (2. order) :-0.2179264E-02  (-0.8120924E-03)
 number of electron      83.9999981 magnetization       0.0120617
 augmentation part       18.8160870 magnetization       0.0084047

 Broyden mixing:
  rms(total) = 0.50416E-01    rms(broyden)= 0.50416E-01
  rms(prec ) = 0.51666E-01
  weight for this iteration     100.00

 eigenvalues of (default mixing * dielectric matrix)
  average eigenvalue GAMMA=   1.2094
  2.5980  1.5921  0.9126  0.9126  0.7691  0.4722

 Free energy of the ion-electron system (eV)
  ---------------------------------------------------
  alpha Z        PSCENC =       487.77386565
  Ewald energy   TEWEN  =     -5605.53882760
  -Hartree energ DENC   =     -2146.65405083
  -exchange      EXHF   =         0.00000000
  -V(xc)+E(xc)   XCENC  =       406.09525430
  PAW double counting   =     10987.79419952   -11437.80760353
  entropy T*S    EENTRO =        -0.00000000
  eigenvalues    EBANDS =      -780.32262280
  atomic energy  EATOM  =      7927.93097991
  Solvation  Ediel_sol  =         0.00000000
  ---------------------------------------------------
  free energy    TOTEN  =      -160.72880538 eV

  energy without entropy =     -160.72880538  energy(sigma->0) =     -160.72880538


--------------------------------------------------------------------------------------------------------




--------------------------------------- Iteration      1(  12)  ---------------------------------------


    POTLOK:  cpu time    0.0397: real time    0.0746
    SETDIJ:  cpu time    0.8932: real time    0.8933
     EDDAV:  cpu time   11.2223: real time   11.2233
       DOS:  cpu time    0.0017: real time    0.0017
    CHARGE:  cpu time    1.0028: real time    1.0029
    MIXING:  cpu time    0.0006: real time    0.0006
    --------------------------------------------
      LOOP:  cpu time   13.1603: real time   13.1964

 eigenvalue-minimisations  : 31392
 total energy-change (2. order) :-0.1483736E-02  (-0.3430939E-03)
 number of electron      83.9999981 magnetization       0.0049136
 augmentation part       18.8199240 magnetization       0.0036882

 Broyden mixing:
  rms(total) = 0.22570E-01    rms(broyden)= 0.22569E-01
  rms(prec ) = 0.23552E-01
  weight for this iteration     100.00

 eigenvalues of (default mixing * dielectric matrix)
  average eigenvalue GAMMA=   1.2434
  2.7067  2.1062  0.8879  0.8879  0.9173  0.7363  0.4611

 Free energy of the ion-electron system (eV)
  ---------------------------------------------------
  alpha Z        PSCENC =       487.77386565
  Ewald energy   TEWEN  =     -5605.53882760
  -Hartree energ DENC   =     -2146.45326297
  -exchange      EXHF   =         0.00000000
  -V(xc)+E(xc)   XCENC  =       406.12805396
  PAW double counting   =     10968.25933717   -11418.50149964
  entropy T*S    EENTRO =        -0.00000000
  eigenvalues    EBANDS =      -780.32893559
  atomic energy  EATOM  =      7927.93097991
  Solvation  Ediel_sol  =         0.00000000
  ---------------------------------------------------
  free energy    TOTEN  =      -160.73028911 eV

  energy without entropy =     -160.73028911  energy(sigma->0) =     -160.73028911


--------------------------------------------------------------------------------------------------------




--------------------------------------- Iteration      1(  13)  ---------------------------------------


    POTLOK:  cpu time    0.0366: real time    0.0503
    SETDIJ:  cpu time    0.9449: real time    0.9450
     EDDAV:  cpu time   11.6042: real time   11.6053
       DOS:  cpu time    0.0016: real time    0.0016
    CHARGE:  cpu time    0.9915: real time    0.9916
    MIXING:  cpu time    0.0006: real time    0.0006
    --------------------------------------------
      LOOP:  cpu time   13.5795: real time   13.5943

 eigenvalue-minimisations  : 30464
 total energy-change (2. order) :-0.3106789E-03  (-0.1144134E-03)
 number of electron      83.9999981 magnetization       0.0028016
 augmentation part       18.8170494 magnetization       0.0023083

 Broyden mixing:
  rms(total) = 0.75332E-02    rms(broyden)= 0.75328E-02
  rms(prec ) = 0.76669E-02
  weight for this iteration     100.00

 eigenvalues of (default mixing * dielectric matrix)
  average eigenvalue GAMMA=   1.2474
  2.6581  2.4427  1.2317  0.8787  0.8787  0.7920  0.6369  0.4602

 Free energy of the ion-electron system (eV)
  ---------------------------------------------------
  alpha Z        PSCENC =       487.77386565
  Ewald energy   TEWEN  =     -5605.53882760
  -Hartree energ DENC   =     -2146.89602370
  -exchange      EXHF   =         0.00000000
  -V(xc)+E(xc)   XCENC  =       406.18651101
  PAW double counting   =     10936.40290773   -11386.63685956
  entropy T*S    EENTRO =        -0.00000000
  eigenvalues    EBANDS =      -779.95315323
  atomic energy  EATOM  =      7927.93097991
  Solvation  Ediel_sol  =         0.00000000
  ---------------------------------------------------
  free energy    TOTEN  =      -160.73059979 eV

  energy without entropy =     -160.73059979  energy(sigma->0) =     -160.73059979


--------------------------------------------------------------------------------------------------------




--------------------------------------- Iteration      1(  14)  ---------------------------------------


    POTLOK:  cpu time    0.0348: real time    0.0348
    SETDIJ:  cpu time    0.8936: real time    0.8936
     EDDAV:  cpu time   10.5063: real time   10.5072
       DOS:  cpu time    0.0017: real time    0.0017
    CHARGE:  cpu time    0.9908: real time    0.9909
    MIXING:  cpu time    0.0006: real time    0.0006
    --------------------------------------------
      LOOP:  cpu time   12.4278: real time   12.4290

 eigenvalue-minimisations  : 30976
[...]
     53       8.6323      0.00000
     54       8.6327      0.00000
     55       9.9757      0.00000
     56       9.9759      0.00000
     57      10.5369      0.00000
     58      10.5370      0.00000
     59      10.7363      0.00000
     60      10.7366      0.00000
     61      10.9405      0.00000
     62      10.9405      0.00000
     63      11.4439      0.00000
     64      11.4441      0.00000

 k-point    98 :       0.5000    0.5000    0.3333
  band No.  band energies     occupation 
      1     -33.0061      1.00000
      2     -32.9953      1.00000
      3     -32.9834      1.00000
      4     -32.9727      1.00000
      5     -14.7145      1.00000
      6     -14.7145      1.00000
      7     -14.7016      1.00000
      8     -14.6996      1.00000
      9     -14.6906      1.00000
     10     -14.6906      1.00000
     11     -14.6068      1.00000
     12     -14.6049      1.00000
     13     -14.3645      1.00000
     14     -14.3645      1.00000
     15     -14.3403      1.00000
     16     -14.3403      1.00000
     17     -11.3648      1.00000
     18     -11.3619      1.00000
     19     -10.6881      1.00000
     20     -10.6855      1.00000
     21      -4.7680      1.00000
     22      -4.7679      1.00000
     23      -4.7634      1.00000
     24      -4.7634      1.00000
     25      -4.6709      1.00000
     26      -4.6691      1.00000
     27      -4.5328      1.00000
     28      -4.5324      1.00000
     29      -4.5318      1.00000
     30      -4.5314      1.00000
     31      -0.5166      1.00000
     32      -0.5165      1.00000
     33       0.4838      1.00000
     34       0.4838      1.00000
     35       0.5636      1.00000
     36       0.5636      1.00000
     37       0.5935      1.00000
     38       0.5940      1.00000
     39       1.7315      1.00000
     40       1.7315      1.00000
     41       1.8105      1.00000
     42       1.8105      1.00000
     43       3.8324      0.00000
     44       3.8324      0.00000
     45       4.5761      0.00000
     46       4.5761      0.00000
     47       6.1808      0.00000
     48       6.1809      0.00000
     49       6.8361      0.00000
     50       6.8361      0.00000
     51       8.0750      0.00000
     52       8.0750      0.00000
     53       8.1705      0.00000
     54       8.1713      0.00000
     55       9.9040      0.00000
     56       9.9042      0.00000
     57      10.5275      0.00000
     58      10.5277      0.00000
     59      10.9363      0.00000
     60      10.9363      0.00000
     61      11.4843      0.00000
     62      11.4891      0.00000
     63      11.5487      0.00000
     64      11.5550      0.00000


--------------------------------------------------------------------------------------------------------


 soft charge-density along one line, spin component           1
         0         1         2         3         4         5         6         7         8         9
 total charge-density along one line
 
 soft charge-density along one line, spin component           2
         0         1         2         3         4         5         6         7         8         9
 total charge-density along one line
 
 pseudopotential strength for first ion, spin component:           1
-10.653  -3.989   0.000   0.003   0.000   0.000   0.003   0.000
 -3.989  -1.076  -0.000  -0.013  -0.000  -0.000  -0.012  -0.000
  0.000  -0.000 -15.459   0.000  -0.000 -15.167   0.000  -0.000
  0.003  -0.013   0.000 -15.484   0.000   0.000 -15.192   0.000
  0.000  -0.000  -0.000   0.000 -15.459  -0.000   0.000 -15.167
  0.000  -0.000 -15.167   0.000  -0.000 -14.878   0.000  -0.000
  0.003  -0.012   0.000 -15.192   0.000   0.000 -14.903   0.000
  0.000  -0.000  -0.000   0.000 -15.167  -0.000   0.000 -14.878
 -0.000  -0.000  -0.000  -0.000   0.000  -0.000  -0.000   0.000
  0.000   0.000   0.002   0.000  -0.000   0.002   0.000  -0.000
 -0.007  -0.004   0.000  -0.007  -0.000   0.000  -0.007  -0.000
  0.000   0.000  -0.000  -0.000   0.002  -0.000  -0.000   0.002
 -0.000   0.000   0.000  -0.000   0.000   0.000  -0.000   0.000
 -0.000  -0.000  -0.000  -0.000   0.000  -0.000  -0.000   0.000
  0.000   0.000   0.003   0.000  -0.000   0.003   0.000  -0.000
 -0.011  -0.007  -0.000  -0.012  -0.000   0.000  -0.011  -0.000
  0.000   0.000  -0.000  -0.000   0.003  -0.000  -0.000   0.003
 -0.000   0.000   0.000  -0.000  -0.000   0.000  -0.000  -0.000
 pseudopotential strength for first ion, spin component:           2
-10.653  -3.989  -0.000   0.003   0.000  -0.000   0.003   0.000
 -3.989  -1.076   0.000  -0.013  -0.000   0.000  -0.012  -0.000
 -0.000   0.000 -15.459  -0.000   0.000 -15.167  -0.000   0.000
  0.003  -0.013  -0.000 -15.484   0.000  -0.000 -15.192   0.000
  0.000  -0.000   0.000   0.000 -15.459   0.000   0.000 -15.167
 -0.000   0.000 -15.167  -0.000   0.000 -14.878  -0.000   0.000
  0.003  -0.012  -0.000 -15.192   0.000  -0.000 -14.903   0.000
  0.000  -0.000   0.000   0.000 -15.167   0.000   0.000 -14.878
  0.000   0.000  -0.000   0.000  -0.000  -0.000   0.000  -0.000
 -0.000  -0.000   0.002  -0.000   0.000   0.002  -0.000   0.000
 -0.007  -0.004   0.000  -0.007  -0.000   0.000  -0.007  -0.000
  0.000   0.000   0.000  -0.000   0.002   0.000  -0.000   0.002
 -0.000  -0.000  -0.000  -0.000   0.000  -0.000  -0.000   0.000
  0.000   0.000  -0.000   0.000  -0.000  -0.000   0.000  -0.000
 -0.000  -0.000   0.003  -0.000   0.000   0.003  -0.000   0.000
 -0.011  -0.007   0.000  -0.012  -0.000   0.000  -0.011  -0.000
  0.000   0.000   0.000  -0.000   0.003   0.000  -0.000   0.003
  0.000  -0.000  -0.000  -0.000  -0.000  -0.000  -0.000  -0.000
 total augmentation occupancy for first ion, spin component:           1
  2.005   0.015   0.000  -0.171  -0.000  -0.000   0.174   0.000  -0.000   0.000   0.001   0.000   0.000   0.000  -0.000   0.006
  0.015   0.562   0.000   0.375   0.000  -0.000  -0.332  -0.000   0.000  -0.000  -0.062   0.000  -0.000  -0.000   0.000   0.025
  0.000   0.000  11.013  -0.000  -0.000  -9.605   0.000   0.000  -0.000  -0.595  -0.000   0.000   0.000   0.000   0.331   0.000
 -0.171   0.375  -0.000   7.114   0.001   0.000  -6.194  -0.001   0.000   0.000   4.116   0.002   0.000  -0.000  -0.000  -2.219
 -0.000   0.000  -0.000   0.001  11.013   0.000  -0.001  -9.605   0.000   0.000   0.001  -0.595  -0.000  -0.000  -0.000  -0.001
 -0.000  -0.000  -9.605   0.000   0.000  10.247  -0.000  -0.000   0.000   0.534   0.000  -0.000  -0.000  -0.000  -0.293  -0.000
  0.174  -0.332   0.000  -6.194  -0.001  -0.000   7.321   0.001  -0.000  -0.000  -3.856  -0.002   0.000   0.000   0.000   2.094
  0.000  -0.000   0.000  -0.001  -9.605  -0.000   0.001  10.247  -0.000  -0.000  -0.001   0.534   0.000   0.000   0.000   0.001
 -0.000   0.000  -0.000   0.000   0.000   0.000  -0.000  -0.000   6.631  -0.000  -0.000  -0.000   0.000  -3.555  -0.000   0.000
  0.000  -0.000  -0.595   0.000   0.000   0.534  -0.000  -0.000  -0.000   2.007  -0.000  -0.000   0.000   0.000  -1.069   0.000
  0.001  -0.062  -0.000   4.116   0.001   0.000  -3.856  -0.001  -0.000  -0.000   5.495   0.001  -0.000   0.000   0.000  -2.982
  0.000   0.000   0.000   0.002  -0.595  -0.000  -0.002   0.534  -0.000  -0.000   0.001   2.007   0.000   0.000   0.000  -0.001
  0.000  -0.000   0.000   0.000  -0.000  -0.000   0.000   0.000   0.000   0.000  -0.000   0.000   1.868  -0.000  -0.000   0.000
  0.000  -0.000   0.000  -0.000  -0.000  -0.000   0.000   0.000  -3.555   0.000   0.000   0.000  -0.000   1.911  -0.000  -0.000
 -0.000   0.000   0.331  -0.000  -0.000  -0.293   0.000   0.000  -0.000  -1.069   0.000   0.000  -0.000  -0.000   0.570  -0.000
  0.006   0.025   0.000  -2.219  -0.001  -0.000   2.094   0.001   0.000   0.000  -2.982  -0.001   0.000  -0.000  -0.000   1.622
 -0.000  -0.000  -0.000  -0.001   0.331   0.000   0.001  -0.293   0.000   0.000  -0.001  -1.069  -0.000  -0.000  -0.000   0.000
 -0.000  -0.000  -0.000  -0.000   0.000   0.000  -0.000  -0.000  -0.000  -0.000   0.000  -0.000  -0.982   0.000   0.000  -0.000
 total augmentation occupancy for first ion, spin component:           2
  0.000   0.000   0.000  -0.000   0.000  -0.000   0.000  -0.000  -0.000   0.000  -0.000   0.000   0.000   0.000  -0.000   0.000
  0.000   0.000  -0.000  -0.000  -0.000   0.000   0.000   0.000  -0.000  -0.000   0.000  -0.000  -0.000   0.000   0.000  -0.000
  0.000  -0.000  -0.000  -0.000   0.000   0.000   0.000  -0.000   0.000  -0.000  -0.000  -0.000   0.000  -0.000   0.000   0.000
 -0.000  -0.000  -0.000   0.000  -0.000   0.000  -0.000   0.000  -0.000  -0.000  -0.000  -0.000  -0.000   0.000   0.000   0.000
  0.000  -0.000   0.000  -0.000  -0.000  -0.000   0.000   0.000   0.000  -0.000  -0.000  -0.000  -0.000  -0.000   0.000   0.000
 -0.000   0.000   0.000   0.000  -0.000   0.000  -0.000   0.000  -0.000   0.000   0.000   0.000  -0.000   0.000  -0.000  -0.000
  0.000   0.000   0.000  -0.000   0.000  -0.000   0.000  -0.000   0.000   0.000   0.000   0.000   0.000  -0.000  -0.000  -0.000
 -0.000   0.000  -0.000   0.000   0.000   0.000  -0.000  -0.000  -0.000   0.000   0.000   0.000   0.000   0.000  -0.000  -0.000
 -0.000  -0.000   0.000  -0.000   0.000  -0.000   0.000  -0.000  -0.000   0.000   0.000  -0.000   0.000   0.000  -0.000  -0.000
  0.000  -0.000  -0.000  -0.000  -0.000   0.000   0.000   0.000   0.000   0.000  -0.000  -0.000  -0.000  -0.000  -0.000   0.000
 -0.000   0.000  -0.000  -0.000  -0.000   0.000   0.000   0.000   0.000  -0.000  -0.000  -0.000   0.000  -0.000   0.000   0.000
  0.000  -0.000  -0.000  -0.000  -0.000   0.000   0.000   0.000  -0.000  -0.000  -0.000   0.000   0.000   0.000   0.000   0.000
  0.000  -0.000   0.000  -0.000  -0.000  -0.000   0.000   0.000   0.000  -0.000   0.000   0.000   0.000  -0.000   0.000  -0.000
  0.000   0.000  -0.000   0.000  -0.000   0.000  -0.000   0.000   0.000  -0.000  -0.000   0.000  -0.000  -0.000   0.000   0.000
 -0.000   0.000   0.000   0.000   0.000  -0.000  -0.000  -0.000  -0.000  -0.000   0.000   0.000   0.000   0.000   0.000  -0.000
  0.000  -0.000   0.000   0.000   0.000  -0.000  -0.000  -0.000  -0.000   0.000   0.000   0.000  -0.000   0.000  -0.000  -0.000
 -0.000   0.000   0.000   0.000   0.000  -0.000  -0.000  -0.000   0.000   0.000   0.000  -0.000   0.000  -0.000  -0.000  -0.000
 -0.000   0.000  -0.000   0.000   0.000   0.000  -0.000  -0.000  -0.000   0.000  -0.000  -0.000  -0.000   0.000  -0.000   0.000


------------------------ aborting loop because EDIFF is reached ----------------------------------------


 


 total charge     
 
# of ion       s       p       d       tot
------------------------------------------
    1        2.017   5.843   0.233   8.094
    2        2.017   5.843   0.233   8.094
    3        2.017   5.843   0.234   8.094
    4        2.017   5.843   0.233   8.094
    5        0.698   0.646   9.753  11.096
    6        0.698   0.646   9.753  11.096
    7        1.258   2.386   0.000   3.645
    8        1.259   2.393   0.000   3.651
    9        1.258   2.390   0.000   3.648
   10        1.258   2.389   0.000   3.648
--------------------------------------------------
tot         14.498  34.223  20.439  69.159
 


 magnetization (x)
 
# of ion       s       p       d       tot
------------------------------------------
    1        0.000   0.000   0.000   0.000
    2        0.000   0.000   0.000   0.000
    3        0.000   0.000   0.000   0.000
    4        0.000   0.000   0.000   0.000
    5        0.000   0.000  -0.000   0.000
    6        0.000   0.000  -0.000   0.000
    7       -0.000  -0.000   0.000  -0.000
    8       -0.000  -0.000   0.000  -0.000
    9       -0.000  -0.000   0.000  -0.000
   10       -0.000  -0.000   0.000  -0.000
--------------------------------------------------
tot          0.000  -0.000   0.000  -0.000
 
    CHARGE:  cpu time    0.1313: real time    0.1313
    FORLOC:  cpu time    0.0007: real time    0.0007
    FORNL :  cpu time    0.6232: real time    0.6235
    STRESS:  cpu time   18.3486: real time   18.3510
    FORCOR:  cpu time    0.0310: real time    0.0310
    FORHAR:  cpu time    0.0024: real time    0.0025
    MIXING:  cpu time    0.0007: real time    0.0007
    OFIELD:  cpu time    0.0001: real time    0.0003

  FORCE on cell =-STRESS in cart. coord.  units (eV):
  Direction    XX          YY          ZZ          XY          YZ          ZX
  --------------------------------------------------------------------------------------
  Alpha Z   487.77387   487.77387   487.77387
  Ewald   -2222.52214 -2222.52191 -1160.50005    -0.00001    -0.00000    -0.01162
  Hartree   510.36113   510.36128  1126.21107    -0.00000    -0.00000    -0.00448
  E(xc)    -403.62897  -403.62885  -404.25978    -0.00000    -0.00000    -0.00015
  Local     717.02775   717.02717  -913.38314     0.00001     0.00001     0.01509
  n-local  -301.57654  -301.57606  -289.54438     0.00000     0.00000    -0.00140
  augment   115.37182   115.36802   111.03875    -0.00000    -0.00000     0.00880
  Kinetic  1097.11744  1097.11788  1042.51476    -0.00000     0.00000     0.00006
  Fock        0.00000     0.00000     0.00000     0.00000     0.00000     0.00000
  -------------------------------------------------------------------------------------
  Total      -0.07564    -0.07861    -0.14890    -0.00000    -0.00000     0.00630
  in kB      -0.63978    -0.66495    -1.25954    -0.00000    -0.00000     0.05328
  external pressure =       -0.85 kB  Pullay stress =        0.00 kB


 VOLUME and BASIS-vectors are now :
 -----------------------------------------------------------------------------
  energy-cutoff  :      520.00
  volume of cell :      189.41
      direct lattice vectors                 reciprocal lattice vectors
     3.851102821  0.000000006 -0.000000101     0.259665879 -0.000000000  0.000000007
     0.000000007  3.851102715 -0.000000006    -0.000000000  0.259665886  0.000000000
    -0.000000333 -0.000000021 12.771321364     0.000000002  0.000000000  0.078300434

  length of vectors
     3.851102821  3.851102715 12.771321364     0.259665879  0.259665886  0.078300434


 FORCES acting on ions
    electron-ion (+dipol)            ewald-force                    non-local-force                 convergence-correction
 -----------------------------------------------------------------------------------------------
   -.737E-02 -.242E-04 0.346E+01   0.586E-02 0.231E-04 -.586E+01   0.135E-02 0.163E-05 0.239E+01   0.574E-07 -.177E-06 0.193E-03
   -.756E-02 -.356E-05 -.122E+01   0.604E-02 0.365E-05 0.359E+01   0.136E-02 -.326E-07 -.238E+01   0.394E-07 0.842E-07 0.150E-03
   0.164E+00 -.357E-05 0.234E+01   -.164E+00 0.348E-05 -.474E+01   -.198E-02 0.433E-06 0.240E+01   -.635E-06 -.194E-06 -.878E-04
   0.160E+00 -.315E-04 -.233E+01   -.160E+00 0.306E-04 0.470E+01   -.195E-02 0.146E-05 -.238E+01   -.923E-06 0.111E-07 -.161E-03
   0.293E+00 0.104E-04 -.927E+01   -.271E+00 -.107E-04 0.969E+01   -.467E-01 0.778E-06 -.140E+00   0.950E-05 0.910E-07 -.466E-03
   0.149E-03 0.773E-05 0.127E+01   -.437E-03 -.803E-05 -.131E+01   0.174E-03 0.879E-07 0.323E-01   0.470E-06 0.381E-06 0.266E-03
   -.264E+00 0.214E-04 -.127E+03   0.288E+00 -.215E-04 0.137E+03   -.278E-01 0.542E-07 -.104E+02   0.366E-06 -.187E-06 0.687E-04
   -.275E+00 0.131E-05 0.132E+03   0.300E+00 -.159E-05 -.142E+03   -.286E-01 0.849E-07 0.105E+02   0.461E-06 0.198E-06 -.200E-03
   0.226E-02 0.554E-05 -.129E+03   -.189E-02 -.601E-05 0.139E+03   -.399E-03 0.457E-06 -.104E+02   0.166E-07 0.688E-07 0.237E-03
   0.221E-02 0.128E-04 0.130E+03   -.185E-02 -.131E-04 -.140E+03   -.392E-03 -.381E-06 0.105E+02   -.357E-07 0.283E-06 -.853E-04
 -----------------------------------------------------------------------------------------------
   0.751E-01 -.396E-05 -.914E-01   -.147E-13 -.197E-13 0.000E+00   -.105E+00 0.457E-05 0.557E-01   0.932E-05 0.559E-06 -.851E-04
 
 
 POSITION                                       TOTAL-FORCE (eV/Angst)
 -----------------------------------------------------------------------------------
     -0.00000      3.85110      4.36603         0.002815      0.000000     -0.003312
      0.00000     -0.00000      8.40529         0.002819      0.000000     -0.012318
      1.92555      1.92555     10.75169         0.000462      0.000000     -0.003024
      1.92555      1.92555      2.01963         0.000553      0.000000     -0.011915
      3.84822      0.00000     12.76175        -0.013253      0.000000      0.307330
      1.92555      1.92555      6.38566         0.002852     -0.000000     -0.003305
      3.85110      0.00000      1.82205        -0.001130     -0.000000     -0.155308
      3.85110      0.00000     10.94927        -0.001001     -0.000000     -0.151050
      1.92555      1.92555      8.20771         0.002941     -0.000000      0.010100
      1.92555      1.92555      4.56362         0.002941     -0.000000      0.022802
 -----------------------------------------------------------------------------------
    total drift:                               -0.029755      0.000001     -0.035814


--------------------------------------------------------------------------------------------------------



  FREE ENERGIE OF THE ION-ELECTRON SYSTEM (eV)
  ---------------------------------------------------
  free  energy   TOTEN  =      -160.73075696 eV

  energy  without entropy=     -160.73075696  energy(sigma->0) =     -160.73075696
 


--------------------------------------------------------------------------------------------------------


    POTLOK:  cpu time    0.9288: real time    0.9289


--------------------------------------------------------------------------------------------------------


     LOOP+:  cpu time  272.2868: real time  272.6589
    4ORBIT:  cpu time    0.0000: real time    0.0000
 


 total charge     
 
# of ion       s       p       d       tot
------------------------------------------
    1        2.017   5.843   0.233   8.094
    2        2.017   5.843   0.233   8.094
    3        2.017   5.843   0.234   8.094
    4        2.017   5.843   0.233   8.094
    5        0.698   0.646   9.753  11.096
    6        0.698   0.646   9.753  11.096
    7        1.258   2.386   0.000   3.645
    8        1.259   2.393   0.000   3.651
    9        1.258   2.390   0.000   3.648
   10        1.258   2.389   0.000   3.648
--------------------------------------------------
tot         14.498  34.223  20.439  69.159
 


 magnetization (x)
 
# of ion       s       p       d       tot
------------------------------------------
    1        0.000   0.000   0.000   0.000
    2        0.000   0.000   0.000   0.000
    3        0.000   0.000   0.000   0.000
    4        0.000   0.000   0.000   0.000
    5        0.000   0.000  -0.000   0.000
    6        0.000   0.000  -0.000   0.000
    7       -0.000  -0.000   0.000  -0.000
    8       -0.000  -0.000   0.000  -0.000
    9       -0.000  -0.000   0.000  -0.000
   10       -0.000  -0.000   0.000  -0.000
--------------------------------------------------
tot          0.000  -0.000   0.000  -0.000
 

 total amount of memory used by VASP MPI-rank0   107651. kBytes
=======================================================================

   base      :      30000. kBytes
   nonl-proj :      55074. kBytes
   fftplans  :       1092. kBytes
   grid      :       4533. kBytes
   one-center:         93. kBytes
   wavefun   :      16859. kBytes
 
  
  
 General timing and accounting informations for this job:
 ========================================================
  
                  Total CPU time used (sec):      281.505
                            User time (sec):      274.606
                          System time (sec):        6.899
                         Elapsed time (sec):      282.574
  
                   Maximum memory used (kb):      169488.
                   Average memory used (kb):           0.
  
                          Minor page faults:        50334
                          Major page faults:            0
                 Voluntary context switches:          691
