 vasp.6.1.2 22Jul20 (build Apr 14 2021 21:39:43) complex                        
  
 executed on             LinuxIFC date 2022.07.09  02:48:36
 running on   64 total cores
 distrk:  each k-point on   64 cores,    1 groups
 distr:  one band on NCORE=   4 cores,   16 groups


--------------------------------------------------------------------------------------------------------


 INCAR:
 POTCAR:    PAW_PBE Sr_sv 07Sep2000               
 POTCAR:    PAW_PBE Zn 06Sep2000                  
 POTCAR:    PAW_PBE P 06Sep2000                   
 POTCAR:    PAW_PBE Sr_sv 07Sep2000               
   SHA256 =  a8389d3481648516ee67182ee030b298d280b37e29cbbf2d8595f040d757c710 Sr_sv/POTCAR          
   COPYR  = (c) Copyright 07Sep2000 Georg Kresse                                                    
   COPYR  = This file is part of the software VASP. Any use, copying, and all other rights are regul
   COPYR  = If you do not have a valid VASP license, you may not use, copy or distribute this file. 
   VRHFIN =Sr: 4s4p5s                                                                               
   LEXCH  = PE                                                                                      
   EATOM  =   843.0319 eV,   61.9611 Ry                                                             
                                                                                                    
   TITEL  = PAW_PBE Sr_sv 07Sep2000                                                                 
   LULTRA =        F    use ultrasoft PP ?                                                          
   IUNSCR =        1    unscreen: 0-lin 1-nonlin 2-no                                               
   RPACOR =    2.200    partial core radius                                                         
   POMASS =   87.620; ZVAL   =   10.000    mass and valenz                                          
   RCORE  =    2.500    outmost cutoff radius                                                       
   RWIGS  =    4.040; RWIGS  =    2.138    wigner-seitz radius (au A)                               
   ENMAX  =  229.353; ENMIN  =  172.014 eV                                                          
   RCLOC  =    2.201    cutoff for local pot                                                        
   LCOR   =        T    correct aug charges                                                         
   LPAW   =        T    paw PP                                                                      
   EAUG   =  366.804                                                                                
   DEXC   =    0.000                                                                                
   RMAX   =    2.547    core radius for proj-oper                                                   
   RAUG   =    1.300    factor for augmentation sphere                                              
   RDEP   =    2.562    radius for radial grids                                                     
   RDEPT  =    2.128    core radius for aug-charge                                                  
                                                                                                    
   Atomic configuration                                                                             
   10 entries                                                                                       
     n  l   j            E        occ.                                                              
     1  0  0.50    -15934.8930   2.0000                                                             
     2  0  0.50     -2157.6250   2.0000                                                             
     2  1  1.50     -1917.0034   6.0000                                                             
     3  0  0.50      -333.7288   2.0000                                                             
     3  1  1.50      -256.0992   6.0000                                                             
     3  2  2.50      -127.9971  10.0000                                                             
     4  0  0.50       -40.8953   2.0000                                                             
     5  0  0.50        -3.5257   1.9990                                                             
     4  1  1.50       -22.8179   6.0000                                                             
     4  2  1.50        -1.2815   0.0010                                                             
   Description                                                                                      
     l       E           TYP  RCUT    TYP  RCUT                                                     
     0    -40.8953213     23  2.480                                                                 
     0     -3.5257161     23  2.480                                                                 
     1    -22.8178632     23  2.500                                                                 
     1    -24.1784458     23  2.500                                                                 
     2     -1.2814598     23  2.500                                                                 
     2      0.2279365     23  2.500                                                                 
  local pseudopotential read in
  partial core-charges read in
  partial kinetic energy density read in
  atomic valenz-charges read in
  non local Contribution for L=           0  read in
    real space projection operators read in
  non local Contribution for L=           0  read in
    real space projection operators read in
  non local Contribution for L=           1  read in
    real space projection operators read in
  non local Contribution for L=           1  read in
    real space projection operators read in
  non local Contribution for L=           2  read in
    real space projection operators read in
  non local Contribution for L=           2  read in
    real space projection operators read in
    PAW grid and wavefunctions read in
 
   number of l-projection  operators is LMAX  =           6
   number of lm-projection operators is LMMAX =          18
 
 POTCAR:    PAW_PBE Zn 06Sep2000                  
   SHA256 =  501fddbd8274dd8e9725d4f3de27861d7f1e553a7e18441bc79fed8f346e7f23 Zn/POTCAR             
   COPYR  = (c) Copyright 06Sep2000 Georg Kresse                                                    
   COPYR  = This file is part of the software VASP. Any use, copying, and all other rights are regul
   COPYR  = If you do not have a valid VASP license, you may not use, copy or distribute this file. 
   VRHFIN =Zn: d10 p2                                                                               
   LEXCH  = PE                                                                                      
   EATOM  =  1748.8345 eV,  128.5357 Ry                                                             
                                                                                                    
   TITEL  = PAW_PBE Zn 06Sep2000                                                                    
   LULTRA =        F    use ultrasoft PP ?                                                          
   IUNSCR =        1    unscreen: 0-lin 1-nonlin 2-no                                               
   RPACOR =    2.000    partial core radius                                                         
   POMASS =   65.390; ZVAL   =   12.000    mass and valenz                                          
   RCORE  =    2.300    outmost cutoff radius                                                       
   RWIGS  =    2.400; RWIGS  =    1.270    wigner-seitz radius (au A)                               
   ENMAX  =  276.723; ENMIN  =  207.542 eV                                                          
   RCLOC  =    1.828    cutoff for local pot                                                        
   LCOR   =        T    correct aug charges                                                         
   LPAW   =        T    paw PP                                                                      
   EAUG   =  575.892                                                                                
   DEXC   =    0.000                                                                                
   RMAX   =    2.347    core radius for proj-oper                                                   
   RAUG   =    1.300    factor for augmentation sphere                                              
   RDEP   =    2.324    radius for radial grids                                                     
   RDEPT  =    1.788    core radius for aug-charge                                                  
                                                                                                    
   Atomic configuration                                                                             
    9 entries                                                                                       
     n  l   j            E        occ.                                                              
     1  0  0.50     -9524.6913   2.0000                                                             
     2  0  0.50     -1158.1882   2.0000                                                             
     2  1  1.50     -1003.8506   6.0000                                                             
     3  0  0.50      -129.2194   2.0000                                                             
     3  1  1.50       -83.3890   6.0000                                                             
     3  2  2.50       -10.1410  10.0000                                                             
     4  0  0.50        -5.9785   2.0000                                                             
     4  1  0.50        -4.0817   0.0000                                                             
     4  3  2.50        -1.3606   0.0000                                                             
   Description                                                                                      
     l       E           TYP  RCUT    TYP  RCUT                                                     
     2    -10.1410010     23  2.300                                                                 
     2    -11.5015836     23  2.300                                                                 
     0     -5.9785163     23  2.300                                                                 
     0      1.1858015     23  2.300                                                                 
     1     -2.7211652     23  2.300                                                                 
     1     13.2444212     23  2.300                                                                 
  local pseudopotential read in
  partial core-charges read in
  partial kinetic energy density read in
  atomic valenz-charges read in
  non local Contribution for L=           2  read in
    real space projection operators read in
  non local Contribution for L=           2  read in
    real space projection operators read in
  non local Contribution for L=           0  read in
    real space projection operators read in
  non local Contribution for L=           0  read in
    real space projection operators read in
  non local Contribution for L=           1  read in
    real space projection operators read in
  non local Contribution for L=           1  read in
    real space projection operators read in
    PAW grid and wavefunctions read in
 
   number of l-projection  operators is LMAX  =           6
   number of lm-projection operators is LMMAX =          18
 
 POTCAR:    PAW_PBE P 06Sep2000                   
   SHA256 =  df60c54a93efe35c9e85ae94c010c75e9f6960a95d5595d7cdba4096d109af88 P/POTCAR              
   COPYR  = (c) Copyright 06Sep2000 Georg Kresse                                                    
   COPYR  = This file is part of the software VASP. Any use, copying, and all other rights are regul
   COPYR  = If you do not have a valid VASP license, you may not use, copy or distribute this file. 
   VRHFIN =P : s2p3                                                                                 
   LEXCH  = PE                                                                                      
   EATOM  =   176.0430 eV,   12.9388 Ry                                                             
                                                                                                    
   TITEL  = PAW_PBE P 06Sep2000                                                                     
   LULTRA =        F    use ultrasoft PP ?                                                          
   IUNSCR =        1    unscreen: 0-lin 1-nonlin 2-no                                               
   RPACOR =    1.500    partial core radius                                                         
   POMASS =   30.974; ZVAL   =    5.000    mass and valenz                                          
   RCORE  =    1.900    outmost cutoff radius                                                       
   RWIGS  =    2.330; RWIGS  =    1.233    wigner-seitz radius (au A)                               
   ENMAX  =  255.040; ENMIN  =  191.280 eV                                                          
   ICORE  =        2    local potential                                                             
   LCOR   =        T    correct aug charges                                                         
   LPAW   =        T    paw PP                                                                      
   EAUG   =  342.924                                                                                
   DEXC   =    0.000                                                                                
   RMAX   =    1.935    core radius for proj-oper                                                   
   RAUG   =    1.300    factor for augmentation sphere                                              
   RDEP   =    1.931    radius for radial grids                                                     
   RDEPT  =    1.794    core radius for aug-charge                                                  
                                                                                                    
   Atomic configuration                                                                             
    6 entries                                                                                       
     n  l   j            E        occ.                                                              
     1  0  0.50     -2084.0982   2.0000                                                             
     2  0  0.50      -173.9859   2.0000                                                             
     2  1  1.50      -124.4865   6.0000                                                             
     3  0  0.50       -13.9692   2.0000                                                             
     3  1  0.50        -5.5067   3.0000                                                             
     3  2  1.50        -5.4423   0.0000                                                             
   Description                                                                                      
     l       E           TYP  RCUT    TYP  RCUT                                                     
     0    -13.9691527     23  1.900                                                                 
     0    -11.7794650     23  1.900                                                                 
     1     -5.5066937     23  1.900                                                                 
     1     -0.2556953     23  1.900                                                                 
     2     -5.4423304     23  1.900                                                                 
  local pseudopotential read in
  partial core-charges read in
  partial kinetic energy density read in
  atomic valenz-charges read in
  non local Contribution for L=           0  read in
    real space projection operators read in
  non local Contribution for L=           0  read in
    real space projection operators read in
  non local Contribution for L=           1  read in
    real space projection operators read in
  non local Contribution for L=           1  read in
    real space projection operators read in
    PAW grid and wavefunctions read in
 
   number of l-projection  operators is LMAX  =           4
   number of lm-projection operators is LMMAX =           8
 
  PAW_PBE Sr_sv 07Sep2000               :
 energy of atom  1       EATOM= -843.0319
 kinetic energy error for atom=    0.0010 (will be added to EATOM!!)
  PAW_PBE Zn 06Sep2000                  :
 energy of atom  2       EATOM=-1748.8345
 kinetic energy error for atom=    0.0029 (will be added to EATOM!!)
  PAW_PBE P 06Sep2000                   :
 energy of atom  3       EATOM= -176.0430
 kinetic energy error for atom=    0.0011 (will be added to EATOM!!)
 
 
 POSCAR: generated by phonopy
  positions in direct lattice
  No initial velocities read in

 METAGGA = SCAN     LMAXTAU =  6    LMIXTAU =  F

 exchange correlation table for  LEXCH =        8
   RHO(1)=    0.500       N(1)  =     2000
   RHO(2)=  100.500       N(2)  =     4000
 


--------------------------------------------------------------------------------------------------------


 ion  position               nearest neighbor table
   1  1.000  1.000  1.000-   4 3.06   5 3.07   5 3.07   5 3.07   4 3.07   4 3.07   2 3.52   3 3.52
                             2 3.52   3 3.52   2 3.52   3 3.52
   2  0.333  0.667  0.630-   5 2.44   5 2.44   5 2.44   4 2.51   3 2.99   3 2.99   3 2.99   1 3.52
                             1 3.52   1 3.52
   3  0.667  0.333  0.370-   4 2.43   4 2.44   4 2.45   5 2.51   2 2.99   2 2.99   2 2.99   1 3.52
                             1 3.52   1 3.52
   4  0.333  0.669  0.277-   3 2.43   3 2.44   3 2.45   2 2.51   1 3.06   1 3.07   1 3.07
   5  0.667  0.333  0.723-   2 2.44   2 2.44   2 2.44   3 2.51   1 3.07   1 3.07   1 3.07
 

IMPORTANT INFORMATION: All symmetrisations will be switched off!
NOSYMM: (Re-)initialisation of all symmetry stuff for point group C_1.


----------------------------------------------------------------------------------------

                                     Primitive cell                                     

  volume of cell :     102.0060

  direct lattice vectors                    reciprocal lattice vectors
     4.072553951  0.000228161  0.000040058     0.245538222  0.141755654 -0.000004231
    -2.036079385  3.526739830  0.000025643    -0.000015885  0.283538822 -0.000003625
     0.000069940  0.000090809  7.101849559    -0.000001385 -0.000001823  0.140808390

  length of vectors
     4.072553957  4.072285979  7.101849560     0.283520165  0.283538822  0.140808390

  position of ions in fractional coordinates (direct lattice)
     0.999999970  0.999999979  0.999999476
     0.333337674  0.666669942  0.630468528
     0.666662349  0.333330056  0.369532614
     0.333330969  0.669121002  0.277054775
     0.666668978  0.333334646  0.722944578

  ion indices of the primitive-cell ions
   primitive index   ion index
                 1           1
                 2           2
                 3           3
                 4           4
                 5           5

----------------------------------------------------------------------------------------

 
 
 KPOINTS: Kpoints                                 

Automatic generation of k-mesh.
 generate k-points for:    9    9    5
Space group operators:
 irot       det(A)        alpha          n_x          n_y          n_z        tau_x        tau_y        tau_z
    1     1.000000     0.000000     1.000000     0.000000     0.000000     0.000000     0.000000     0.000000
 
 Subroutine IBZKPT returns following result:
 ===========================================
 
 Found    203 irreducible k-points:
 
 Following reciprocal coordinates:
            Coordinates               Weight
  0.000000  0.000000  0.000000      1.000000
  0.111111 -0.000000  0.000000      2.000000
  0.222222 -0.000000  0.000000      2.000000
  0.333333  0.000000  0.000000      2.000000
  0.444444 -0.000000  0.000000      2.000000
 -0.000000  0.111111 -0.000000      2.000000
  0.111111  0.111111 -0.000000      2.000000
  0.222222  0.111111 -0.000000      2.000000
  0.333333  0.111111  0.000000      2.000000
  0.444444  0.111111  0.000000      2.000000
 -0.444444  0.111111  0.000000      2.000000
 -0.333333  0.111111  0.000000      2.000000
 -0.222222  0.111111  0.000000      2.000000
 -0.111111  0.111111 -0.000000      2.000000
 -0.000000  0.222222  0.000000      2.000000
  0.111111  0.222222  0.000000      2.000000
  0.222222  0.222222 -0.000000      2.000000
  0.333333  0.222222 -0.000000      2.000000
  0.444444  0.222222 -0.000000      2.000000
 -0.444444  0.222222  0.000000      2.000000
 -0.333333  0.222222  0.000000      2.000000
 -0.222222  0.222222  0.000000      2.000000
 -0.111111  0.222222  0.000000      2.000000
 -0.000000  0.333333  0.000000      2.000000
  0.111111  0.333333  0.000000      2.000000
  0.222222  0.333333  0.000000      2.000000
  0.333333  0.333333  0.000000      2.000000
  0.444444  0.333333  0.000000      2.000000
 -0.444444  0.333333 -0.000000      2.000000
 -0.333333  0.333333  0.000000      2.000000
 -0.222222  0.333333  0.000000      2.000000
 -0.111111  0.333333  0.000000      2.000000
 -0.000000  0.444444 -0.000000      2.000000
  0.111111  0.444444 -0.000000      2.000000
  0.222222  0.444444  0.000000      2.000000
  0.333333  0.444444  0.000000      2.000000
  0.444444  0.444444  0.000000      2.000000
 -0.444444  0.444444 -0.000000      2.000000
 -0.333333  0.444444 -0.000000      2.000000
 -0.222222  0.444444  0.000000      2.000000
 -0.111111  0.444444 -0.000000      2.000000
  0.000000  0.000000  0.200000      2.000000
  0.111111  0.000000  0.200000      2.000000
  0.222222 -0.000000  0.200000      2.000000
  0.333333 -0.000000  0.200000      2.000000
  0.444444 -0.000000  0.200000      2.000000
 -0.444444  0.000000  0.200000      2.000000
 -0.333333 -0.000000  0.200000      2.000000
 -0.222222  0.000000  0.200000      2.000000
 -0.111111  0.000000  0.200000      2.000000
 -0.000000  0.111111  0.200000      2.000000
  0.111111  0.111111  0.200000      2.000000
  0.222222  0.111111  0.200000      2.000000
  0.333333  0.111111  0.200000      2.000000
  0.444444  0.111111  0.200000      2.000000
 -0.444444  0.111111  0.200000      2.000000
 -0.333333  0.111111  0.200000      2.000000
 -0.222222  0.111111  0.200000      2.000000
 -0.111111  0.111111  0.200000      2.000000
 -0.000000  0.222222  0.200000      2.000000
  0.111111  0.222222  0.200000      2.000000
  0.222222  0.222222  0.200000      2.000000
  0.333333  0.222222  0.200000      2.000000
  0.444444  0.222222  0.200000      2.000000
 -0.444444  0.222222  0.200000      2.000000
 -0.333333  0.222222  0.200000      2.000000
 -0.222222  0.222222  0.200000      2.000000
 -0.111111  0.222222  0.200000      2.000000
 -0.000000  0.333333  0.200000      2.000000
  0.111111  0.333333  0.200000      2.000000
  0.222222  0.333333  0.200000      2.000000
  0.333333  0.333333  0.200000      2.000000
  0.444444  0.333333  0.200000      2.000000
 -0.444444  0.333333  0.200000      2.000000
 -0.333333  0.333333  0.200000      2.000000
 -0.222222  0.333333  0.200000      2.000000
 -0.111111  0.333333  0.200000      2.000000
  0.000000  0.444444  0.200000      2.000000
  0.111111  0.444444  0.200000      2.000000
  0.222222  0.444444  0.200000      2.000000
  0.333333  0.444444  0.200000      2.000000
  0.444444  0.444444  0.200000      2.000000
 -0.444444  0.444444  0.200000      2.000000
 -0.333333  0.444444  0.200000      2.000000
 -0.222222  0.444444  0.200000      2.000000
 -0.111111  0.444444  0.200000      2.000000
  0.000000 -0.444444  0.200000      2.000000
  0.111111 -0.444444  0.200000      2.000000
  0.222222 -0.444444  0.200000      2.000000
  0.333333 -0.444444  0.200000      2.000000
  0.444444 -0.444444  0.200000      2.000000
 -0.444444 -0.444444  0.200000      2.000000
 -0.333333 -0.444444  0.200000      2.000000
 -0.222222 -0.444444  0.200000      2.000000
 -0.111111 -0.444444  0.200000      2.000000
  0.000000 -0.333333  0.200000      2.000000
  0.111111 -0.333333  0.200000      2.000000
  0.222222 -0.333333  0.200000      2.000000
  0.333333 -0.333333  0.200000      2.000000
  0.444444 -0.333333  0.200000      2.000000
 -0.444444 -0.333333  0.200000      2.000000
 -0.333333 -0.333333  0.200000      2.000000
 -0.222222 -0.333333  0.200000      2.000000
 -0.111111 -0.333333  0.200000      2.000000
  0.000000 -0.222222  0.200000      2.000000
  0.111111 -0.222222  0.200000      2.000000
  0.222222 -0.222222  0.200000      2.000000
  0.333333 -0.222222  0.200000      2.000000
  0.444444 -0.222222  0.200000      2.000000
 -0.444444 -0.222222  0.200000      2.000000
 -0.333333 -0.222222  0.200000      2.000000
 -0.222222 -0.222222  0.200000      2.000000
 -0.111111 -0.222222  0.200000      2.000000
 -0.000000 -0.111111  0.200000      2.000000
  0.111111 -0.111111  0.200000      2.000000
  0.222222 -0.111111  0.200000      2.000000
  0.333333 -0.111111  0.200000      2.000000
  0.444444 -0.111111  0.200000      2.000000
 -0.444444 -0.111111  0.200000      2.000000
 -0.333333 -0.111111  0.200000      2.000000
 -0.222222 -0.111111  0.200000      2.000000
 -0.111111 -0.111111  0.200000      2.000000
  0.000000  0.000000  0.400000      2.000000
  0.111111  0.000000  0.400000      2.000000
  0.222222  0.000000  0.400000      2.000000
  0.333333  0.000000  0.400000      2.000000
  0.444444 -0.000000  0.400000      2.000000
 -0.444444  0.000000  0.400000      2.000000
 -0.333333  0.000000  0.400000      2.000000
 -0.222222  0.000000  0.400000      2.000000
 -0.111111  0.000000  0.400000      2.000000
 -0.000000  0.111111  0.400000      2.000000
  0.111111  0.111111  0.400000      2.000000
  0.222222  0.111111  0.400000      2.000000
  0.333333  0.111111  0.400000      2.000000
  0.444444  0.111111  0.400000      2.000000
 -0.444444  0.111111  0.400000      2.000000
 -0.333333  0.111111  0.400000      2.000000
 -0.222222  0.111111  0.400000      2.000000
 -0.111111  0.111111  0.400000      2.000000
 -0.000000  0.222222  0.400000      2.000000
  0.111111  0.222222  0.400000      2.000000
  0.222222  0.222222  0.400000      2.000000
  0.333333  0.222222  0.400000      2.000000
  0.444444  0.222222  0.400000      2.000000
 -0.444444  0.222222  0.400000      2.000000
 -0.333333  0.222222  0.400000      2.000000
 -0.222222  0.222222  0.400000      2.000000
 -0.111111  0.222222  0.400000      2.000000
 -0.000000  0.333333  0.400000      2.000000
  0.111111  0.333333  0.400000      2.000000
  0.222222  0.333333  0.400000      2.000000
  0.333333  0.333333  0.400000      2.000000
  0.444444  0.333333  0.400000      2.000000
 -0.444444  0.333333  0.400000      2.000000
 -0.333333  0.333333  0.400000      2.000000
 -0.222222  0.333333  0.400000      2.000000
 -0.111111  0.333333  0.400000      2.000000
 -0.000000  0.444444  0.400000      2.000000
  0.111111  0.444444  0.400000      2.000000
  0.222222  0.444444  0.400000      2.000000
  0.333333  0.444444  0.400000      2.000000
  0.444444  0.444444  0.400000      2.000000
 -0.444444  0.444444  0.400000      2.000000
 -0.333333  0.444444  0.400000      2.000000
 -0.222222  0.444444  0.400000      2.000000
 -0.111111  0.444444  0.400000      2.000000
  0.000000 -0.444444  0.400000      2.000000
  0.111111 -0.444444  0.400000      2.000000
  0.222222 -0.444444  0.400000      2.000000
  0.333333 -0.444444  0.400000      2.000000
  0.444444 -0.444444  0.400000      2.000000
 -0.444444 -0.444444  0.400000      2.000000
 -0.333333 -0.444444  0.400000      2.000000
 -0.222222 -0.444444  0.400000      2.000000
 -0.111111 -0.444444  0.400000      2.000000
  0.000000 -0.333333  0.400000      2.000000
  0.111111 -0.333333  0.400000      2.000000
  0.222222 -0.333333  0.400000      2.000000
  0.333333 -0.333333  0.400000      2.000000
  0.444444 -0.333333  0.400000      2.000000
 -0.444444 -0.333333  0.400000      2.000000
 -0.333333 -0.333333  0.400000      2.000000
 -0.222222 -0.333333  0.400000      2.000000
 -0.111111 -0.333333  0.400000      2.000000
 -0.000000 -0.222222  0.400000      2.000000
  0.111111 -0.222222  0.400000      2.000000
  0.222222 -0.222222  0.400000      2.000000
  0.333333 -0.222222  0.400000      2.000000
  0.444444 -0.222222  0.400000      2.000000
 -0.444444 -0.222222  0.400000      2.000000
 -0.333333 -0.222222  0.400000      2.000000
 -0.222222 -0.222222  0.400000      2.000000
 -0.111111 -0.222222  0.400000      2.000000
  0.000000 -0.111111  0.400000      2.000000
  0.111111 -0.111111  0.400000      2.000000
  0.222222 -0.111111  0.400000      2.000000
  0.333333 -0.111111  0.400000      2.000000
  0.444444 -0.111111  0.400000      2.000000
 -0.444444 -0.111111  0.400000      2.000000
 -0.333333 -0.111111  0.400000      2.000000
 -0.222222 -0.111111  0.400000      2.000000
 -0.111111 -0.111111  0.400000      2.000000
 
 Following cartesian coordinates:
            Coordinates               Weight
  0.000000  0.000000  0.000000      1.000000
  0.027282  0.015751 -0.000000      2.000000
  0.054564  0.031501 -0.000001      2.000000
  0.081846  0.047252 -0.000001      2.000000
  0.109128  0.063003 -0.000002      2.000000
 -0.000002  0.031504 -0.000000      2.000000
  0.027280  0.047255 -0.000001      2.000000
  0.054562  0.063006 -0.000001      2.000000
  0.081844  0.078756 -0.000002      2.000000
  0.109126  0.094507 -0.000002      2.000000
 -0.109130 -0.031498  0.000001      2.000000
 -0.081848 -0.015748  0.000001      2.000000
 -0.054566  0.000003  0.000001      2.000000
 -0.027284  0.015754  0.000000      2.000000
 -0.000004  0.063009 -0.000001      2.000000
  0.027278  0.078759 -0.000001      2.000000
  0.054561  0.094510 -0.000002      2.000000
  0.081843  0.110261 -0.000002      2.000000
  0.109125  0.126011 -0.000003      2.000000
 -0.109132  0.000006  0.000001      2.000000
 -0.081850  0.015757  0.000001      2.000000
 -0.054568  0.031507  0.000000      2.000000
 -0.027286  0.047258 -0.000000      2.000000
 -0.000005  0.094513 -0.000001      2.000000
  0.027277  0.110264 -0.000002      2.000000
  0.054559  0.126014 -0.000002      2.000000
  0.081841  0.141765 -0.000003      2.000000
  0.109123  0.157515 -0.000003      2.000000
 -0.109133  0.031510  0.000001      2.000000
 -0.081851  0.047261  0.000000      2.000000
 -0.054569  0.063012 -0.000000      2.000000
 -0.027287  0.078762 -0.000001      2.000000
 -0.000007  0.126017 -0.000002      2.000000
  0.027275  0.141768 -0.000002      2.000000
  0.054557  0.157519 -0.000003      2.000000
  0.081839  0.173269 -0.000003      2.000000
  0.109121  0.189020 -0.000003      2.000000
 -0.109135  0.063015  0.000000      2.000000
 -0.081853  0.078765 -0.000000      2.000000
 -0.054571  0.094516 -0.000001      2.000000
 -0.027289  0.110267 -0.000001      2.000000
 -0.000000 -0.000000  0.028162      2.000000
  0.027282  0.015750  0.028161      2.000000
  0.054564  0.031501  0.028161      2.000000
  0.081846  0.047252  0.028160      2.000000
  0.109128  0.063002  0.028160      2.000000
 -0.109128 -0.063003  0.028164      2.000000
 -0.081846 -0.047252  0.028163      2.000000
 -0.054564 -0.031502  0.028163      2.000000
 -0.027282 -0.015751  0.028162      2.000000
 -0.000002  0.031504  0.028161      2.000000
  0.027280  0.047255  0.028161      2.000000
  0.054562  0.063005  0.028160      2.000000
  0.081844  0.078756  0.028160      2.000000
  0.109126  0.094506  0.028159      2.000000
 -0.109130 -0.031499  0.028163      2.000000
 -0.081848 -0.015748  0.028163      2.000000
 -0.054566  0.000003  0.028162      2.000000
 -0.027284  0.015753  0.028162      2.000000
 -0.000004  0.063008  0.028161      2.000000
  0.027278  0.078759  0.028160      2.000000
  0.054560  0.094510  0.028160      2.000000
  0.081842  0.110260  0.028159      2.000000
  0.109124  0.126011  0.028159      2.000000
 -0.109132  0.000006  0.028163      2.000000
 -0.081850  0.015756  0.028162      2.000000
 -0.054568  0.031507  0.028162      2.000000
 -0.027286  0.047258  0.028161      2.000000
 -0.000006  0.094513  0.028160      2.000000
  0.027276  0.110263  0.028160      2.000000
  0.054558  0.126014  0.028160      2.000000
  0.081841  0.141764  0.028159      2.000000
  0.109123  0.157515  0.028159      2.000000
 -0.109134  0.031510  0.028162      2.000000
 -0.081852  0.047261  0.028162      2.000000
 -0.054570  0.063011  0.028161      2.000000
 -0.027288  0.078762  0.028161      2.000000
 -0.000007  0.126017  0.028160      2.000000
  0.027275  0.141768  0.028160      2.000000
  0.054557  0.157518  0.028159      2.000000
  0.081839  0.173269  0.028159      2.000000
  0.109121  0.189019  0.028158      2.000000
 -0.109135  0.063014  0.028162      2.000000
 -0.081853  0.078765  0.028161      2.000000
 -0.054571  0.094516  0.028161      2.000000
 -0.027289  0.110266  0.028161      2.000000
  0.000007 -0.126018  0.028163      2.000000
  0.027289 -0.110267  0.028163      2.000000
  0.054571 -0.094516  0.028162      2.000000
  0.081853 -0.078766  0.028162      2.000000
  0.109135 -0.063015  0.028161      2.000000
 -0.109121 -0.189020  0.028165      2.000000
 -0.081839 -0.173270  0.028165      2.000000
 -0.054557 -0.157519  0.028164      2.000000
 -0.027275 -0.141768  0.028164      2.000000
  0.000005 -0.094513  0.028163      2.000000
  0.027287 -0.078763  0.028162      2.000000
  0.054569 -0.063012  0.028162      2.000000
  0.081851 -0.047261  0.028161      2.000000
  0.109133 -0.031511  0.028161      2.000000
 -0.109123 -0.157516  0.028165      2.000000
 -0.081841 -0.141765  0.028164      2.000000
 -0.054559 -0.126015  0.028164      2.000000
 -0.027277 -0.110264  0.028163      2.000000
  0.000003 -0.063009  0.028162      2.000000
  0.027285 -0.047258  0.028162      2.000000
  0.054567 -0.031508  0.028162      2.000000
  0.081849 -0.015757  0.028161      2.000000
  0.109131 -0.000006  0.028161      2.000000
 -0.109125 -0.126012  0.028164      2.000000
 -0.081843 -0.110261  0.028164      2.000000
 -0.054561 -0.094510  0.028163      2.000000
 -0.027279 -0.078760  0.028163      2.000000
  0.000001 -0.031505  0.028162      2.000000
  0.027284 -0.015754  0.028162      2.000000
  0.054566 -0.000003  0.028161      2.000000
  0.081848  0.015747  0.028161      2.000000
  0.109130  0.031498  0.028160      2.000000
 -0.109127 -0.094507  0.028164      2.000000
 -0.081845 -0.078757  0.028163      2.000000
 -0.054563 -0.063006  0.028163      2.000000
 -0.027281 -0.047255  0.028163      2.000000
 -0.000001 -0.000001  0.056323      2.000000
  0.027281  0.015750  0.056323      2.000000
  0.054563  0.031501  0.056322      2.000000
  0.081846  0.047251  0.056322      2.000000
  0.109128  0.063002  0.056321      2.000000
 -0.109129 -0.063003  0.056325      2.000000
 -0.081847 -0.047253  0.056325      2.000000
 -0.054565 -0.031502  0.056324      2.000000
 -0.027283 -0.015751  0.056324      2.000000
 -0.000002  0.031504  0.056323      2.000000
  0.027280  0.047254  0.056322      2.000000
  0.054562  0.063005  0.056322      2.000000
  0.081844  0.078755  0.056322      2.000000
  0.109126  0.094506  0.056321      2.000000
 -0.109130 -0.031499  0.056325      2.000000
 -0.081848 -0.015748  0.056324      2.000000
 -0.054566  0.000002  0.056324      2.000000
 -0.027284  0.015753  0.056323      2.000000
 -0.000004  0.063008  0.056323      2.000000
  0.027278  0.078759  0.056322      2.000000
  0.054560  0.094509  0.056322      2.000000
  0.081842  0.110260  0.056321      2.000000
  0.109124  0.126010  0.056321      2.000000
 -0.109132  0.000005  0.056324      2.000000
 -0.081850  0.015756  0.056324      2.000000
 -0.054568  0.031507  0.056323      2.000000
 -0.027286  0.047257  0.056323      2.000000
 -0.000006  0.094512  0.056322      2.000000
  0.027276  0.110263  0.056322      2.000000
  0.054558  0.126013  0.056321      2.000000
  0.081840  0.141764  0.056321      2.000000
  0.109122  0.157515  0.056320      2.000000
 -0.109134  0.031510  0.056324      2.000000
 -0.081852  0.047260  0.056324      2.000000
 -0.054570  0.063011  0.056323      2.000000
 -0.027288  0.078762  0.056323      2.000000
 -0.000008  0.126017  0.056322      2.000000
  0.027274  0.141767  0.056321      2.000000
  0.054556  0.157518  0.056321      2.000000
  0.081838  0.173268  0.056320      2.000000
  0.109120  0.189019  0.056320      2.000000
 -0.109136  0.063014  0.056324      2.000000
 -0.081854  0.078765  0.056323      2.000000
 -0.054572  0.094515  0.056323      2.000000
 -0.027290  0.110266  0.056322      2.000000
  0.000007 -0.126018  0.056325      2.000000
  0.027289 -0.110267  0.056324      2.000000
  0.054571 -0.094517  0.056324      2.000000
  0.081853 -0.078766  0.056324      2.000000
  0.109135 -0.063015  0.056323      2.000000
 -0.109122 -0.189020  0.056327      2.000000
 -0.081840 -0.173270  0.056326      2.000000
 -0.054558 -0.157519  0.056326      2.000000
 -0.027276 -0.141769  0.056325      2.000000
  0.000005 -0.094514  0.056325      2.000000
  0.027287 -0.078763  0.056324      2.000000
  0.054569 -0.063012  0.056324      2.000000
  0.081851 -0.047262  0.056323      2.000000
  0.109133 -0.031511  0.056323      2.000000
 -0.109123 -0.157516  0.056326      2.000000
 -0.081841 -0.141766  0.056326      2.000000
 -0.054559 -0.126015  0.056326      2.000000
 -0.027277 -0.110264  0.056325      2.000000
  0.000003 -0.063009  0.056324      2.000000
  0.027285 -0.047259  0.056324      2.000000
  0.054567 -0.031508  0.056323      2.000000
  0.081849 -0.015757  0.056323      2.000000
  0.109131 -0.000007  0.056322      2.000000
 -0.109125 -0.126012  0.056326      2.000000
 -0.081843 -0.110261  0.056326      2.000000
 -0.054561 -0.094511  0.056325      2.000000
 -0.027279 -0.078760  0.056325      2.000000
  0.000001 -0.031505  0.056324      2.000000
  0.027283 -0.015754  0.056323      2.000000
  0.054565 -0.000004  0.056323      2.000000
  0.081847  0.015747  0.056322      2.000000
  0.109129  0.031497  0.056322      2.000000
 -0.109127 -0.094508  0.056326      2.000000
 -0.081845 -0.078757  0.056325      2.000000
 -0.054563 -0.063006  0.056325      2.000000
 -0.027281 -0.047256  0.056324      2.000000
 


--------------------------------------------------------------------------------------------------------




 Dimension of arrays:
   k-points           NKPTS =    203   k-points in BZ     NKDIM =    203   number of bands    NBANDS=     32
   number of dos      NEDOS =    301   number of ions     NIONS =      5
   non local maximal  LDIM  =      6   non local SUM 2l+1 LMDIM =     18
   total plane-waves  NPLWV =  48600
   max r-space proj   IRMAX =      1   max aug-charges    IRDMAX=  28133
   dimension x,y,z NGX =    30 NGY =   30 NGZ =   54
   dimension x,y,z NGXF=    60 NGYF=   60 NGZF=  108
   support grid    NGXF=    60 NGYF=   60 NGZF=  108
   ions per type =               1   2   2
   NGX,Y,Z   is equivalent  to a cutoff of  12.25, 12.25, 12.64 a.u.
   NGXF,Y,Z  is equivalent  to a cutoff of  24.49, 24.49, 25.28 a.u.

 SYSTEM =  unknown system                          
 POSCAR =  generated by phonopy                    

 Startparameter for this run:
   NWRITE =      2    write-flag & timer
   PREC   = accura    normal or accurate (medium, high low for compatibility)
   ISTART =      0    job   : 0-new  1-cont  2-samecut
   ICHARG =      2    charge: 1-file 2-atom 10-const
   ISPIN  =      2    spin polarized calculation?
   LNONCOLLINEAR =      F non collinear calculations
   LSORBIT =      F    spin-orbit coupling
   INIWAV =      1    electr: 0-lowe 1-rand  2-diag
   LASPH  =      T    aspherical Exc in radial PAW
   METAGGA=      F    non-selfconsistent MetaGGA calc.

 Electronic Relaxation 1
   ENCUT  =  520.0 eV  38.22 Ry    6.18 a.u.   7.57  7.57 13.20*2*pi/ulx,y,z
   ENINI  =  520.0     initial cutoff
   ENAUG  =  575.9 eV  augmentation charge cutoff
   NELM   =    200;   NELMIN=  6; NELMDL= -5     # of ELM steps 
   EDIFF  = 0.1E-05   stopping-criterion for ELM
   LREAL  =      F    real-space projection
   NLSPLINE    = F    spline interpolate recip. space projectors
   LCOMPAT=      F    compatible to vasp.4.4
   GGA_COMPAT  = T    GGA compatible to vasp.4.4-vasp.4.6
   LMAXPAW     = -100 max onsite density
   LMAXMIX     =    2 max onsite mixed and CHGCAR
   VOSKOWN=      0    Vosko Wilk Nusair interpolation
   ROPT   =    0.00000   0.00000   0.00000
 Ionic relaxation
   EDIFFG = -.3E-01   stopping-criterion for IOM
   NSW    =      0    number of steps for IOM
   NBLOCK =      1;   KBLOCK =      1    inner block; outer block 
   IBRION =     -1    ionic relax: 0-MD 1-quasi-New 2-CG
   NFREE  =      0    steps in history (QN), initial steepest desc. (CG)
   ISIF   =      2    stress and relaxation
   IWAVPR =     10    prediction:  0-non 1-charg 2-wave 3-comb
   ISYM   =      0    0-nonsym 1-usesym 2-fastsym
   LCORR  =      T    Harris-Foulkes like correction to forces

   POTIM  = 0.5000    time-step for ionic-motion
   TEIN   =    0.0    initial temperature
   TEBEG  =    0.0;   TEEND  =   0.0 temperature during run
   SMASS  =  -3.00    Nose mass-parameter (am)
   estimated Nose-frequenzy (Omega)   =  0.10E-29 period in steps = 0.13E+47 mass=  -0.379E-27a.u.
   SCALEE = 1.0000    scale energy and forces
   NPACO  =    256;   APACO  = 16.0  distance and # of slots for P.C.
   PSTRESS=    0.0 pullay stress

  Mass of Ions in am
   POMASS =  87.62 65.39 30.97
  Ionic Valenz
   ZVAL   =  10.00 12.00  5.00
  Atomic Wigner-Seitz radii
   RWIGS  =  -1.00 -1.00 -1.00
  virtual crystal weights 
   VCA    =   1.00  1.00  1.00
   NELECT =      44.0000    total number of electrons
   NUPDOWN=      -1.0000    fix difference up-down

 DOS related values:
   EMIN   =  10.00;   EMAX   =-10.00  energy-range for DOS
   EFERMI =   0.00
   ISMEAR =     0;   SIGMA  =   0.05  broadening in eV -4-tet -1-fermi 0-gaus

 Electronic relaxation 2 (details)
   IALGO  =     38    algorithm
   LDIAG  =      T    sub-space diagonalisation (order eigenvalues)
   LSUBROT=      F    optimize rotation matrix (better conditioning)
   TURBO    =      0    0=normal 1=particle mesh
   IRESTART =      0    0=no restart 2=restart with 2 vectors
   NREBOOT  =      0    no. of reboots
   NMIN     =      0    reboot dimension
   EREF     =   0.00    reference energy to select bands
   IMIX   =      4    mixing-type and parameters
     AMIX     =   0.40;   BMIX     =  1.00
     AMIX_MAG =   1.60;   BMIX_MAG =  1.00
     AMIN     =   0.10
     WC   =   100.;   INIMIX=   1;  MIXPRE=   1;  MAXMIX= -45

 Intra band minimization:
   WEIMIN = 0.0000     energy-eigenvalue tresh-hold
   EBREAK =  0.78E-08  absolut break condition
   DEPER  =   0.30     relativ break condition  

   TIME   =   0.40     timestep for ELM

  volume/ion in A,a.u.               =      20.40       137.67
  Fermi-wavevector in a.u.,A,eV,Ry     =   1.236945  2.337488 20.817369  1.530033
  Thomas-Fermi vector in A             =   2.371533
 
 Write flags
   LWAVE        =      F    write WAVECAR
   LDOWNSAMPLE  =      F    k-point downsampling of WAVECAR
   LCHARG       =      F    write CHGCAR
   LVTOT        =      F    write LOCPOT, total local potential
   LVHAR        =      F    write LOCPOT, Hartree potential only
   LELF         =      F    write electronic localiz. function (ELF)
   LORBIT       =     11    0 simple, 1 ext, 2 COOP (PROOUT), +10 PAW based schemes


 Dipole corrections
   LMONO  =      F    monopole corrections only (constant potential shift)
   LDIPOL =      F    correct potential (dipole corrections)
   IDIPOL =      0    1-x, 2-y, 3-z, 4-all directions 
   EPSILON=  1.0000000 bulk dielectric constant

 Exchange correlation treatment:
   GGA     =    --    GGA type
   LEXCH   =     8    internal setting for exchange type
   VOSKOWN=      0    Vosko Wilk Nusair interpolation
   LHFCALC =     F    Hartree Fock is set to
   LHFONE  =     F    Hartree Fock one center treatment
   AEXX    =    0.0000 exact exchange contribution

 Linear response parameters
   LEPSILON=     F    determine dielectric tensor
   LRPA    =     F    only Hartree local field effects (RPA)
   LNABLA  =     F    use nabla operator in PAW spheres
   LVEL    =     F    velocity operator in full k-point grid
   LINTERFAST=   F  fast interpolation
   KINTER  =     0    interpolate to denser k-point grid
   CSHIFT  =0.1000    complex shift for real part using Kramers Kronig
   OMEGAMAX=  -1.0    maximum frequency
   DEG_THRESHOLD= 0.2000000E-02 threshold for treating states as degnerate
   RTIME   =   -0.100 relaxation time in fs
  (WPLASMAI=    0.000 imaginary part of plasma frequency in eV, 0.658/RTIME)
   DFIELD  = 0.0000000 0.0000000 0.0000000 field for delta impulse in time
 
 Orbital magnetization related:
   ORBITALMAG=     F  switch on orbital magnetization
   LCHIMAG   =     F  perturbation theory with respect to B field
   DQ        =  0.001000  dq finite difference perturbation B field
   LLRAUG    =     F  two centre corrections for induced B field



--------------------------------------------------------------------------------------------------------


 Static calculation
 charge density and potential will be updated during run
 spin polarized calculation
 Variant of blocked Davidson
 Davidson routine will perform the subspace rotation
 perform sub-space diagonalisation
    after iterative eigenvector-optimisation
 modified Broyden-mixing scheme, WC =      100.0
 initial mixing is a Kerker type mixing with AMIX =  0.4000 and BMIX =      1.0000
 Hartree-type preconditioning will be used
 using additional bands           10
 reciprocal scheme for non local part
 use partial core corrections
 calculate Harris-corrections to forces 
   (improved forces if not selfconsistent)
 use gradient corrections 
 use of overlap-Matrix (Vanderbilt PP)
 Gauss-broadening in eV      SIGMA  =   0.05


--------------------------------------------------------------------------------------------------------


  energy-cutoff  :      520.00
  volume of cell :      102.01
      direct lattice vectors                 reciprocal lattice vectors
     4.072553951  0.000228161  0.000040058     0.245538222  0.141755654 -0.000004231
    -2.036079385  3.526739830  0.000025643    -0.000015885  0.283538822 -0.000003625
     0.000069940  0.000090809  7.101849559    -0.000001385 -0.000001823  0.140808390

  length of vectors
     4.072553957  4.072285979  7.101849560     0.283520165  0.283538822  0.140808390


 
 k-points in units of 2pi/SCALE and weight: Kpoints                                 
   0.00000000  0.00000000  0.00000000       0.002
   0.02728202  0.01575063 -0.00000047       0.005
   0.05456405  0.03150126 -0.00000094       0.005
   0.08184607  0.04725188 -0.00000141       0.005
   0.10912810  0.06300251 -0.00000188       0.005
  -0.00000176  0.03150431 -0.00000040       0.005
   0.02728026  0.04725494 -0.00000087       0.005
   0.05456228  0.06300557 -0.00000134       0.005
   0.08184431  0.07875620 -0.00000181       0.005
   0.10912633  0.09450683 -0.00000228       0.005
  -0.10912986 -0.03149820  0.00000148       0.005
  -0.08184784 -0.01574757  0.00000101       0.005
  -0.05456581  0.00000306  0.00000054       0.005
  -0.02728379  0.01575369  0.00000007       0.005
  -0.00000353  0.06300863 -0.00000081       0.005
   0.02727849  0.07875926 -0.00000128       0.005
   0.05456052  0.09450988 -0.00000175       0.005
   0.08184254  0.11026051 -0.00000222       0.005
   0.10912457  0.12601114 -0.00000269       0.005
  -0.10913163  0.00000611  0.00000107       0.005
  -0.08184960  0.01575674  0.00000060       0.005
  -0.05456758  0.03150737  0.00000013       0.005
  -0.02728555  0.04725800 -0.00000034       0.005
  -0.00000529  0.09451294 -0.00000121       0.005
   0.02727673  0.11026357 -0.00000168       0.005
   0.05455875  0.12601420 -0.00000215       0.005
   0.08184078  0.14176483 -0.00000262       0.005
   0.10912280  0.15751545 -0.00000309       0.005
  -0.10913339  0.03151043  0.00000067       0.005
  -0.08185137  0.04726106  0.00000020       0.005
  -0.05456934  0.06301168 -0.00000027       0.005
  -0.02728732  0.07876231 -0.00000074       0.005
  -0.00000706  0.12601725 -0.00000161       0.005
   0.02727496  0.14176788 -0.00000208       0.005
   0.05455699  0.15751851 -0.00000255       0.005
   0.08183901  0.17326914 -0.00000302       0.005
   0.10912104  0.18901977 -0.00000349       0.005
  -0.10913516  0.06301474  0.00000027       0.005
  -0.08185313  0.07876537 -0.00000020       0.005
  -0.05457111  0.09451600 -0.00000067       0.005
  -0.02728908  0.11026663 -0.00000114       0.005
  -0.00000028 -0.00000036  0.02816168       0.005
   0.02728175  0.01575026  0.02816121       0.005
   0.05456377  0.03150089  0.02816074       0.005
   0.08184580  0.04725152  0.02816027       0.005
   0.10912782  0.06300215  0.02815980       0.005
  -0.10912838 -0.06300288  0.02816356       0.005
  -0.08184635 -0.04725225  0.02816309       0.005
  -0.05456433 -0.03150162  0.02816262       0.005
  -0.02728230 -0.01575099  0.02816215       0.005
  -0.00000204  0.03150395  0.02816128       0.005
   0.02727998  0.04725458  0.02816081       0.005
   0.05456201  0.06300521  0.02816033       0.005
   0.08184403  0.07875583  0.02815986       0.005
   0.10912606  0.09450646  0.02815939       0.005
  -0.10913014 -0.03149856  0.02816316       0.005
  -0.08184812 -0.01574794  0.02816269       0.005
  -0.05456609  0.00000269  0.02816222       0.005
  -0.02728407  0.01575332  0.02816175       0.005
  -0.00000381  0.06300826  0.02816087       0.005
   0.02727822  0.07875889  0.02816040       0.005
   0.05456024  0.09450952  0.02815993       0.005
   0.08184227  0.11026015  0.02815946       0.005
   0.10912429  0.12601078  0.02815899       0.005
  -0.10913191  0.00000575  0.02816275       0.005
  -0.08184988  0.01575638  0.02816228       0.005
  -0.05456786  0.03150701  0.02816181       0.005
  -0.02728583  0.04725763  0.02816134       0.005
  -0.00000557  0.09451258  0.02816047       0.005
   0.02727645  0.11026320  0.02816000       0.005
   0.05455848  0.12601383  0.02815953       0.005
   0.08184050  0.14176446  0.02815906       0.005
   0.10912253  0.15751509  0.02815859       0.005
  -0.10913367  0.03151006  0.02816235       0.005
  -0.08185165  0.04726069  0.02816188       0.005
  -0.05456962  0.06301132  0.02816141       0.005
  -0.02728760  0.07876195  0.02816094       0.005
  -0.00000734  0.12601689  0.02816007       0.005
   0.02727469  0.14176752  0.02815960       0.005
   0.05455671  0.15751815  0.02815913       0.005
   0.08183874  0.17326877  0.02815866       0.005
   0.10912076  0.18901940  0.02815819       0.005
  -0.10913544  0.06301438  0.02816195       0.005
  -0.08185341  0.07876500  0.02816148       0.005
  -0.05457139  0.09451563  0.02816101       0.005
  -0.02728936  0.11026626  0.02816054       0.005
   0.00000678 -0.12601762  0.02816329       0.005
   0.02728881 -0.11026699  0.02816282       0.005
   0.05457083 -0.09451636  0.02816235       0.005
   0.08185286 -0.07876573  0.02816188       0.005
   0.10913488 -0.06301511  0.02816141       0.005
  -0.10912132 -0.18902013  0.02816517       0.005
  -0.08183929 -0.17326950  0.02816470       0.005
  -0.05455727 -0.15751888  0.02816423       0.005
  -0.02727524 -0.14176825  0.02816376       0.005
   0.00000502 -0.09451331  0.02816289       0.005
   0.02728704 -0.07876268  0.02816242       0.005
   0.05456907 -0.06301205  0.02816195       0.005
   0.08185109 -0.04726142  0.02816148       0.005
   0.10913312 -0.03151079  0.02816101       0.005
  -0.10912308 -0.15751582  0.02816477       0.005
  -0.08184106 -0.14176519  0.02816430       0.005
  -0.05455903 -0.12601456  0.02816383       0.005
  -0.02727701 -0.11026393  0.02816336       0.005
   0.00000325 -0.06300899  0.02816248       0.005
   0.02728528 -0.04725836  0.02816201       0.005
   0.05456730 -0.03150774  0.02816154       0.005
   0.08184933 -0.01575711  0.02816107       0.005
   0.10913135 -0.00000648  0.02816060       0.005
  -0.10912485 -0.12601150  0.02816436       0.005
  -0.08184282 -0.11026088  0.02816389       0.005
  -0.05456080 -0.09451025  0.02816342       0.005
  -0.02727877 -0.07875962  0.02816295       0.005
   0.00000149 -0.03150468  0.02816208       0.005
   0.02728351 -0.01575405  0.02816161       0.005
   0.05456554 -0.00000342  0.02816114       0.005
   0.08184756  0.01574721  0.02816067       0.005
   0.10912959  0.03149783  0.02816020       0.005
  -0.10912661 -0.09450719  0.02816396       0.005
  -0.08184459 -0.07875656  0.02816349       0.005
  -0.05456256 -0.06300593  0.02816302       0.005
  -0.02728054 -0.04725531  0.02816255       0.005
  -0.00000055 -0.00000073  0.05632336       0.005
   0.02728147  0.01574990  0.05632289       0.005
   0.05456350  0.03150053  0.05632242       0.005
   0.08184552  0.04725116  0.05632195       0.005
   0.10912754  0.06300178  0.05632148       0.005
  -0.10912865 -0.06300324  0.05632524       0.005
  -0.08184663 -0.04725261  0.05632477       0.005
  -0.05456460 -0.03150199  0.05632430       0.005
  -0.02728258 -0.01575136  0.05632383       0.005
  -0.00000232  0.03150358  0.05632295       0.005
   0.02727971  0.04725421  0.05632248       0.005
   0.05456173  0.06300484  0.05632201       0.005
   0.08184376  0.07875547  0.05632154       0.005
   0.10912578  0.09450610  0.05632107       0.005
  -0.10913042 -0.03149893  0.05632483       0.005
  -0.08184839 -0.01574830  0.05632436       0.005
  -0.05456637  0.00000233  0.05632389       0.005
  -0.02728434  0.01575296  0.05632342       0.005
  -0.00000408  0.06300790  0.05632255       0.005
   0.02727794  0.07875853  0.05632208       0.005
   0.05455997  0.09450915  0.05632161       0.005
   0.08184199  0.11025978  0.05632114       0.005
   0.10912401  0.12601041  0.05632067       0.005
  -0.10913218  0.00000538  0.05632443       0.005
  -0.08185016  0.01575601  0.05632396       0.005
  -0.05456813  0.03150664  0.05632349       0.005
  -0.02728611  0.04725727  0.05632302       0.005
  -0.00000585  0.09451221  0.05632215       0.005
   0.02727618  0.11026284  0.05632168       0.005
   0.05455820  0.12601347  0.05632121       0.005
   0.08184023  0.14176410  0.05632074       0.005
   0.10912225  0.15751472  0.05632027       0.005
  -0.10913395  0.03150970  0.05632403       0.005
  -0.08185192  0.04726033  0.05632356       0.005
  -0.05456990  0.06301095  0.05632309       0.005
  -0.02728787  0.07876158  0.05632262       0.005
  -0.00000761  0.12601652  0.05632174       0.005
   0.02727441  0.14176715  0.05632127       0.005
   0.05455644  0.15751778  0.05632080       0.005
   0.08183846  0.17326841  0.05632033       0.005
   0.10912048  0.18901904  0.05631986       0.005
  -0.10913571  0.06301401  0.05632362       0.005
  -0.08185369  0.07876464  0.05632315       0.005
  -0.05457166  0.09451527  0.05632268       0.005
  -0.02728964  0.11026590  0.05632221       0.005
   0.00000651 -0.12601798  0.05632497       0.005
   0.02728853 -0.11026736  0.05632450       0.005
   0.05457056 -0.09451673  0.05632403       0.005
   0.08185258 -0.07876610  0.05632356       0.005
   0.10913460 -0.06301547  0.05632309       0.005
  -0.10912159 -0.18902050  0.05632685       0.005
  -0.08183957 -0.17326987  0.05632638       0.005
  -0.05455754 -0.15751924  0.05632591       0.005
  -0.02727552 -0.14176861  0.05632544       0.005
   0.00000474 -0.09451367  0.05632456       0.005
   0.02728677 -0.07876304  0.05632409       0.005
   0.05456879 -0.06301241  0.05632362       0.005
   0.08185082 -0.04726179  0.05632315       0.005
   0.10913284 -0.03151116  0.05632268       0.005
  -0.10912336 -0.15751618  0.05632644       0.005
  -0.08184133 -0.14176555  0.05632597       0.005
  -0.05455931 -0.12601493  0.05632550       0.005
  -0.02727728 -0.11026430  0.05632503       0.005
   0.00000298 -0.06300936  0.05632416       0.005
   0.02728500 -0.04725873  0.05632369       0.005
   0.05456703 -0.03150810  0.05632322       0.005
   0.08184905 -0.01575747  0.05632275       0.005
   0.10913107 -0.00000684  0.05632228       0.005
  -0.10912512 -0.12601187  0.05632604       0.005
  -0.08184310 -0.11026124  0.05632557       0.005
  -0.05456107 -0.09451061  0.05632510       0.005
  -0.02727905 -0.07875998  0.05632463       0.005
   0.00000121 -0.03150504  0.05632376       0.005
   0.02728324 -0.01575441  0.05632329       0.005
   0.05456526 -0.00000379  0.05632282       0.005
   0.08184729  0.01574684  0.05632235       0.005
   0.10912931  0.03149747  0.05632188       0.005
  -0.10912689 -0.09450756  0.05632564       0.005
  -0.08184486 -0.07875693  0.05632517       0.005
  -0.05456284 -0.06300630  0.05632470       0.005
  -0.02728081 -0.04725567  0.05632423       0.005
 
 k-points in reciprocal lattice and weights: Kpoints                                 
   0.00000000  0.00000000  0.00000000       0.002
   0.11111111 -0.00000000  0.00000000       0.005
   0.22222222 -0.00000000  0.00000000       0.005
   0.33333333  0.00000000  0.00000000       0.005
   0.44444444 -0.00000000  0.00000000       0.005
  -0.00000000  0.11111111 -0.00000000       0.005
   0.11111111  0.11111111 -0.00000000       0.005
   0.22222222  0.11111111 -0.00000000       0.005
   0.33333333  0.11111111  0.00000000       0.005
   0.44444444  0.11111111  0.00000000       0.005
  -0.44444444  0.11111111  0.00000000       0.005
  -0.33333333  0.11111111  0.00000000       0.005
  -0.22222222  0.11111111  0.00000000       0.005
  -0.11111111  0.11111111 -0.00000000       0.005
  -0.00000000  0.22222222  0.00000000       0.005
   0.11111111  0.22222222  0.00000000       0.005
   0.22222222  0.22222222 -0.00000000       0.005
   0.33333333  0.22222222 -0.00000000       0.005
   0.44444444  0.22222222 -0.00000000       0.005
  -0.44444444  0.22222222  0.00000000       0.005
  -0.33333333  0.22222222  0.00000000       0.005
  -0.22222222  0.22222222  0.00000000       0.005
  -0.11111111  0.22222222  0.00000000       0.005
  -0.00000000  0.33333333  0.00000000       0.005
   0.11111111  0.33333333  0.00000000       0.005
   0.22222222  0.33333333  0.00000000       0.005
   0.33333333  0.33333333  0.00000000       0.005
   0.44444444  0.33333333  0.00000000       0.005
  -0.44444444  0.33333333 -0.00000000       0.005
  -0.33333333  0.33333333  0.00000000       0.005
  -0.22222222  0.33333333  0.00000000       0.005
  -0.11111111  0.33333333  0.00000000       0.005
  -0.00000000  0.44444444 -0.00000000       0.005
   0.11111111  0.44444444 -0.00000000       0.005
   0.22222222  0.44444444  0.00000000       0.005
   0.33333333  0.44444444  0.00000000       0.005
   0.44444444  0.44444444  0.00000000       0.005
  -0.44444444  0.44444444 -0.00000000       0.005
  -0.33333333  0.44444444 -0.00000000       0.005
  -0.22222222  0.44444444  0.00000000       0.005
  -0.11111111  0.44444444 -0.00000000       0.005
   0.00000000  0.00000000  0.20000000       0.005
   0.11111111  0.00000000  0.20000000       0.005
   0.22222222 -0.00000000  0.20000000       0.005
   0.33333333 -0.00000000  0.20000000       0.005
   0.44444444 -0.00000000  0.20000000       0.005
  -0.44444444  0.00000000  0.20000000       0.005
  -0.33333333 -0.00000000  0.20000000       0.005
  -0.22222222  0.00000000  0.20000000       0.005
  -0.11111111  0.00000000  0.20000000       0.005
  -0.00000000  0.11111111  0.20000000       0.005
   0.11111111  0.11111111  0.20000000       0.005
   0.22222222  0.11111111  0.20000000       0.005
   0.33333333  0.11111111  0.20000000       0.005
   0.44444444  0.11111111  0.20000000       0.005
  -0.44444444  0.11111111  0.20000000       0.005
  -0.33333333  0.11111111  0.20000000       0.005
  -0.22222222  0.11111111  0.20000000       0.005
  -0.11111111  0.11111111  0.20000000       0.005
  -0.00000000  0.22222222  0.20000000       0.005
   0.11111111  0.22222222  0.20000000       0.005
   0.22222222  0.22222222  0.20000000       0.005
   0.33333333  0.22222222  0.20000000       0.005
   0.44444444  0.22222222  0.20000000       0.005
  -0.44444444  0.22222222  0.20000000       0.005
  -0.33333333  0.22222222  0.20000000       0.005
  -0.22222222  0.22222222  0.20000000       0.005
  -0.11111111  0.22222222  0.20000000       0.005
  -0.00000000  0.33333333  0.20000000       0.005
   0.11111111  0.33333333  0.20000000       0.005
   0.22222222  0.33333333  0.20000000       0.005
   0.33333333  0.33333333  0.20000000       0.005
   0.44444444  0.33333333  0.20000000       0.005
  -0.44444444  0.33333333  0.20000000       0.005
  -0.33333333  0.33333333  0.20000000       0.005
  -0.22222222  0.33333333  0.20000000       0.005
  -0.11111111  0.33333333  0.20000000       0.005
   0.00000000  0.44444444  0.20000000       0.005
   0.11111111  0.44444444  0.20000000       0.005
   0.22222222  0.44444444  0.20000000       0.005
   0.33333333  0.44444444  0.20000000       0.005
   0.44444444  0.44444444  0.20000000       0.005
  -0.44444444  0.44444444  0.20000000       0.005
  -0.33333333  0.44444444  0.20000000       0.005
  -0.22222222  0.44444444  0.20000000       0.005
  -0.11111111  0.44444444  0.20000000       0.005
   0.00000000 -0.44444444  0.20000000       0.005
   0.11111111 -0.44444444  0.20000000       0.005
   0.22222222 -0.44444444  0.20000000       0.005
   0.33333333 -0.44444444  0.20000000       0.005
   0.44444444 -0.44444444  0.20000000       0.005
  -0.44444444 -0.44444444  0.20000000       0.005
  -0.33333333 -0.44444444  0.20000000       0.005
  -0.22222222 -0.44444444  0.20000000       0.005
  -0.11111111 -0.44444444  0.20000000       0.005
   0.00000000 -0.33333333  0.20000000       0.005
   0.11111111 -0.33333333  0.20000000       0.005
   0.22222222 -0.33333333  0.20000000       0.005
   0.33333333 -0.33333333  0.20000000       0.005
   0.44444444 -0.33333333  0.20000000       0.005
  -0.44444444 -0.33333333  0.20000000       0.005
  -0.33333333 -0.33333333  0.20000000       0.005
  -0.22222222 -0.33333333  0.20000000       0.005
  -0.11111111 -0.33333333  0.20000000       0.005
   0.00000000 -0.22222222  0.20000000       0.005
   0.11111111 -0.22222222  0.20000000       0.005
   0.22222222 -0.22222222  0.20000000       0.005
   0.33333333 -0.22222222  0.20000000       0.005
   0.44444444 -0.22222222  0.20000000       0.005
  -0.44444444 -0.22222222  0.20000000       0.005
  -0.33333333 -0.22222222  0.20000000       0.005
  -0.22222222 -0.22222222  0.20000000       0.005
  -0.11111111 -0.22222222  0.20000000       0.005
  -0.00000000 -0.11111111  0.20000000       0.005
   0.11111111 -0.11111111  0.20000000       0.005
   0.22222222 -0.11111111  0.20000000       0.005
   0.33333333 -0.11111111  0.20000000       0.005
   0.44444444 -0.11111111  0.20000000       0.005
  -0.44444444 -0.11111111  0.20000000       0.005
  -0.33333333 -0.11111111  0.20000000       0.005
  -0.22222222 -0.11111111  0.20000000       0.005
  -0.11111111 -0.11111111  0.20000000       0.005
   0.00000000  0.00000000  0.40000000       0.005
   0.11111111  0.00000000  0.40000000       0.005
   0.22222222  0.00000000  0.40000000       0.005
   0.33333333  0.00000000  0.40000000       0.005
   0.44444444 -0.00000000  0.40000000       0.005
  -0.44444444  0.00000000  0.40000000       0.005
  -0.33333333  0.00000000  0.40000000       0.005
  -0.22222222  0.00000000  0.40000000       0.005
  -0.11111111  0.00000000  0.40000000       0.005
  -0.00000000  0.11111111  0.40000000       0.005
   0.11111111  0.11111111  0.40000000       0.005
   0.22222222  0.11111111  0.40000000       0.005
   0.33333333  0.11111111  0.40000000       0.005
   0.44444444  0.11111111  0.40000000       0.005
  -0.44444444  0.11111111  0.40000000       0.005
  -0.33333333  0.11111111  0.40000000       0.005
  -0.22222222  0.11111111  0.40000000       0.005
  -0.11111111  0.11111111  0.40000000       0.005
  -0.00000000  0.22222222  0.40000000       0.005
   0.11111111  0.22222222  0.40000000       0.005
   0.22222222  0.22222222  0.40000000       0.005
   0.33333333  0.22222222  0.40000000       0.005
   0.44444444  0.22222222  0.40000000       0.005
  -0.44444444  0.22222222  0.40000000       0.005
  -0.33333333  0.22222222  0.40000000       0.005
  -0.22222222  0.22222222  0.40000000       0.005
  -0.11111111  0.22222222  0.40000000       0.005
  -0.00000000  0.33333333  0.40000000       0.005
   0.11111111  0.33333333  0.40000000       0.005
   0.22222222  0.33333333  0.40000000       0.005
   0.33333333  0.33333333  0.40000000       0.005
   0.44444444  0.33333333  0.40000000       0.005
  -0.44444444  0.33333333  0.40000000       0.005
  -0.33333333  0.33333333  0.40000000       0.005
  -0.22222222  0.33333333  0.40000000       0.005
  -0.11111111  0.33333333  0.40000000       0.005
  -0.00000000  0.44444444  0.40000000       0.005
   0.11111111  0.44444444  0.40000000       0.005
   0.22222222  0.44444444  0.40000000       0.005
   0.33333333  0.44444444  0.40000000       0.005
   0.44444444  0.44444444  0.40000000       0.005
  -0.44444444  0.44444444  0.40000000       0.005
  -0.33333333  0.44444444  0.40000000       0.005
  -0.22222222  0.44444444  0.40000000       0.005
  -0.11111111  0.44444444  0.40000000       0.005
   0.00000000 -0.44444444  0.40000000       0.005
   0.11111111 -0.44444444  0.40000000       0.005
   0.22222222 -0.44444444  0.40000000       0.005
   0.33333333 -0.44444444  0.40000000       0.005
   0.44444444 -0.44444444  0.40000000       0.005
  -0.44444444 -0.44444444  0.40000000       0.005
  -0.33333333 -0.44444444  0.40000000       0.005
  -0.22222222 -0.44444444  0.40000000       0.005
  -0.11111111 -0.44444444  0.40000000       0.005
   0.00000000 -0.33333333  0.40000000       0.005
   0.11111111 -0.33333333  0.40000000       0.005
   0.22222222 -0.33333333  0.40000000       0.005
   0.33333333 -0.33333333  0.40000000       0.005
   0.44444444 -0.33333333  0.40000000       0.005
  -0.44444444 -0.33333333  0.40000000       0.005
  -0.33333333 -0.33333333  0.40000000       0.005
  -0.22222222 -0.33333333  0.40000000       0.005
  -0.11111111 -0.33333333  0.40000000       0.005
  -0.00000000 -0.22222222  0.40000000       0.005
   0.11111111 -0.22222222  0.40000000       0.005
   0.22222222 -0.22222222  0.40000000       0.005
   0.33333333 -0.22222222  0.40000000       0.005
   0.44444444 -0.22222222  0.40000000       0.005
  -0.44444444 -0.22222222  0.40000000       0.005
  -0.33333333 -0.22222222  0.40000000       0.005
  -0.22222222 -0.22222222  0.40000000       0.005
  -0.11111111 -0.22222222  0.40000000       0.005
   0.00000000 -0.11111111  0.40000000       0.005
   0.11111111 -0.11111111  0.40000000       0.005
   0.22222222 -0.11111111  0.40000000       0.005
   0.33333333 -0.11111111  0.40000000       0.005
   0.44444444 -0.11111111  0.40000000       0.005
  -0.44444444 -0.11111111  0.40000000       0.005
  -0.33333333 -0.11111111  0.40000000       0.005
  -0.22222222 -0.11111111  0.40000000       0.005
  -0.11111111 -0.11111111  0.40000000       0.005
 
 position of ions in fractional coordinates (direct lattice) 
   0.99999997  0.99999998  0.99999948
   0.33333767  0.66666994  0.63046853
   0.66666235  0.33333006  0.36953261
   0.33333097  0.66912100  0.27705477
   0.66666898  0.33333465  0.72294458
 
 position of ions in cartesian coordinates  (Angst):
   2.03654443  3.52705873  7.10191154
   0.00018683  2.35130474  4.47752308
   2.03635778  1.17575405  2.62440029
  -0.00485575  2.35991690  1.96763184
   2.03640014  1.17580233  5.13427888
 


--------------------------------------------------------------------------------------------------------


 k-point   1 :   0.0000 0.0000 0.0000  plane waves:    2755
 k-point   2 :   0.1111-0.0000 0.0000  plane waves:    2769
 k-point   3 :   0.2222-0.0000 0.0000  plane waves:    2757
 k-point   4 :   0.3333 0.0000 0.0000  plane waves:    2753
 k-point   5 :   0.4444-0.0000 0.0000  plane waves:    2732
 k-point   6 :  -0.0000 0.1111-0.0000  plane waves:    2769
 k-point   7 :   0.1111 0.1111-0.0000  plane waves:    2767
 k-point   8 :   0.2222 0.1111-0.0000  plane waves:    2749
 k-point   9 :   0.3333 0.1111 0.0000  plane waves:    2739
 k-point  10 :   0.4444 0.1111 0.0000  plane waves:    2742
 k-point  11 :  -0.4444 0.1111 0.0000  plane waves:    2739
 k-point  12 :  -0.3333 0.1111 0.0000  plane waves:    2749
 k-point  13 :  -0.2222 0.1111 0.0000  plane waves:    2767
 k-point  14 :  -0.1111 0.1111-0.0000  plane waves:    2769
 k-point  15 :  -0.0000 0.2222 0.0000  plane waves:    2757
 k-point  16 :   0.1111 0.2222 0.0000  plane waves:    2749
 k-point  17 :   0.2222 0.2222-0.0000  plane waves:    2736
 k-point  18 :   0.3333 0.2222-0.0000  plane waves:    2734
 k-point  19 :   0.4444 0.2222-0.0000  plane waves:    2734
 k-point  20 :  -0.4444 0.2222 0.0000  plane waves:    2736
 k-point  21 :  -0.3333 0.2222 0.0000  plane waves:    2749
 k-point  22 :  -0.2222 0.2222 0.0000  plane waves:    2757
 k-point  23 :  -0.1111 0.2222 0.0000  plane waves:    2767
 k-point  24 :  -0.0000 0.3333 0.0000  plane waves:    2753
 k-point  25 :   0.1111 0.3333 0.0000  plane waves:    2739
 k-point  26 :   0.2222 0.3333 0.0000  plane waves:    2732
 k-point  27 :   0.3333 0.3333 0.0000  plane waves:    2748
 k-point  28 :   0.4444 0.3333 0.0000  plane waves:    2732
 k-point  29 :  -0.4444 0.3333-0.0000  plane waves:    2739
 k-point  30 :  -0.3333 0.3333 0.0000  plane waves:    2753
 k-point  31 :  -0.2222 0.3333 0.0000  plane waves:    2747
 k-point  32 :  -0.1111 0.3333 0.0000  plane waves:    2749
 k-point  33 :  -0.0000 0.4444-0.0000  plane waves:    2732
 k-point  34 :   0.1111 0.4444-0.0000  plane waves:    2742
 k-point  35 :   0.2222 0.4444 0.0000  plane waves:    2734
 k-point  36 :   0.3333 0.4444 0.0000  plane waves:    2734
 k-point  37 :   0.4444 0.4444 0.0000  plane waves:    2742
 k-point  38 :  -0.4444 0.4444-0.0000  plane waves:    2732
 k-point  39 :  -0.3333 0.4444-0.0000  plane waves:    2739
 k-point  40 :  -0.2222 0.4444 0.0000  plane waves:    2736
 k-point  41 :  -0.1111 0.4444-0.0000  plane waves:    2739
 k-point  42 :   0.0000 0.0000 0.2000  plane waves:    2737
 k-point  43 :   0.1111 0.0000 0.2000  plane waves:    2754
 k-point  44 :   0.2222-0.0000 0.2000  plane waves:    2765
 k-point  45 :   0.3333-0.0000 0.2000  plane waves:    2751
 k-point  46 :   0.4444-0.0000 0.2000  plane waves:    2731
 k-point  47 :  -0.4444 0.0000 0.2000  plane waves:    2731
 k-point  48 :  -0.3333-0.0000 0.2000  plane waves:    2751
 k-point  49 :  -0.2222 0.0000 0.2000  plane waves:    2765
 k-point  50 :  -0.1111 0.0000 0.2000  plane waves:    2754
 k-point  51 :  -0.0000 0.1111 0.2000  plane waves:    2754
 k-point  52 :   0.1111 0.1111 0.2000  plane waves:    2754
 k-point  53 :   0.2222 0.1111 0.2000  plane waves:    2751
 k-point  54 :   0.3333 0.1111 0.2000  plane waves:    2738
 k-point  55 :   0.4444 0.1111 0.2000  plane waves:    2736
 k-point  56 :  -0.4444 0.1111 0.2000  plane waves:    2738
 k-point  57 :  -0.3333 0.1111 0.2000  plane waves:    2751
 k-point  58 :  -0.2222 0.1111 0.2000  plane waves:    2754
 k-point  59 :  -0.1111 0.1111 0.2000  plane waves:    2754
 k-point  60 :  -0.0000 0.2222 0.2000  plane waves:    2765
 k-point  61 :   0.1111 0.2222 0.2000  plane waves:    2751
 k-point  62 :   0.2222 0.2222 0.2000  plane waves:    2743
 k-point  63 :   0.3333 0.2222 0.2000  plane waves:    2738
 k-point  64 :   0.4444 0.2222 0.2000  plane waves:    2738
 k-point  65 :  -0.4444 0.2222 0.2000  plane waves:    2743
 k-point  66 :  -0.3333 0.2222 0.2000  plane waves:    2751
 k-point  67 :  -0.2222 0.2222 0.2000  plane waves:    2765
 k-point  68 :  -0.1111 0.2222 0.2000  plane waves:    2752
 k-point  69 :  -0.0000 0.3333 0.2000  plane waves:    2751
 k-point  70 :   0.1111 0.3333 0.2000  plane waves:    2738
 k-point  71 :   0.2222 0.3333 0.2000  plane waves:    2737
 k-point  72 :   0.3333 0.3333 0.2000  plane waves:    2731
 k-point  73 :   0.4444 0.3333 0.2000  plane waves:    2738
 k-point  74 :  -0.4444 0.3333 0.2000  plane waves:    2738
 k-point  75 :  -0.3333 0.3333 0.2000  plane waves:    2751
 k-point  76 :  -0.2222 0.3333 0.2000  plane waves:    2751
 k-point  77 :  -0.1111 0.3333 0.2000  plane waves:    2751
 k-point  78 :   0.0000 0.4444 0.2000  plane waves:    2731
 k-point  79 :   0.1111 0.4444 0.2000  plane waves:    2736
 k-point  80 :   0.2222 0.4444 0.2000  plane waves:    2738
 k-point  81 :   0.3333 0.4444 0.2000  plane waves:    2738
 k-point  82 :   0.4444 0.4444 0.2000  plane waves:    2736
 k-point  83 :  -0.4444 0.4444 0.2000  plane waves:    2731
 k-point  84 :  -0.3333 0.4444 0.2000  plane waves:    2738
 k-point  85 :  -0.2222 0.4444 0.2000  plane waves:    2744
 k-point  86 :  -0.1111 0.4444 0.2000  plane waves:    2738
 k-point  87 :   0.0000-0.4444 0.2000  plane waves:    2731
 k-point  88 :   0.1111-0.4444 0.2000  plane waves:    2738
 k-point  89 :   0.2222-0.4444 0.2000  plane waves:    2743
 k-point  90 :   0.3333-0.4444 0.2000  plane waves:    2738
 k-point  91 :   0.4444-0.4444 0.2000  plane waves:    2731
 k-point  92 :  -0.4444-0.4444 0.2000  plane waves:    2736
 k-point  93 :  -0.3333-0.4444 0.2000  plane waves:    2738
 k-point  94 :  -0.2222-0.4444 0.2000  plane waves:    2738
 k-point  95 :  -0.1111-0.4444 0.2000  plane waves:    2736
 k-point  96 :   0.0000-0.3333 0.2000  plane waves:    2751
 k-point  97 :   0.1111-0.3333 0.2000  plane waves:    2751
 k-point  98 :   0.2222-0.3333 0.2000  plane waves:    2751
 k-point  99 :   0.3333-0.3333 0.2000  plane waves:    2751
 k-point 100 :   0.4444-0.3333 0.2000  plane waves:    2738
 k-point 101 :  -0.4444-0.3333 0.2000  plane waves:    2738
 k-point 102 :  -0.3333-0.3333 0.2000  plane waves:    2730
 k-point 103 :  -0.2222-0.3333 0.2000  plane waves:    2738
 k-point 104 :  -0.1111-0.3333 0.2000  plane waves:    2738
 k-point 105 :   0.0000-0.2222 0.2000  plane waves:    2765
 k-point 106 :   0.1111-0.2222 0.2000  plane waves:    2752
 k-point 107 :   0.2222-0.2222 0.2000  plane waves:    2765
 k-point 108 :   0.3333-0.2222 0.2000  plane waves:    2751
 k-point 109 :   0.4444-0.2222 0.2000  plane waves:    2743
 k-point 110 :  -0.4444-0.2222 0.2000  plane waves:    2738
 k-point 111 :  -0.3333-0.2222 0.2000  plane waves:    2738
 k-point 112 :  -0.2222-0.2222 0.2000  plane waves:    2743
 k-point 113 :  -0.1111-0.2222 0.2000  plane waves:    2751
 k-point 114 :  -0.0000-0.1111 0.2000  plane waves:    2754
 k-point 115 :   0.1111-0.1111 0.2000  plane waves:    2754
 k-point 116 :   0.2222-0.1111 0.2000  plane waves:    2754
 k-point 117 :   0.3333-0.1111 0.2000  plane waves:    2751
 k-point 118 :   0.4444-0.1111 0.2000  plane waves:    2738
 k-point 119 :  -0.4444-0.1111 0.2000  plane waves:    2736
 k-point 120 :  -0.3333-0.1111 0.2000  plane waves:    2738
 k-point 121 :  -0.2222-0.1111 0.2000  plane waves:    2751
 k-point 122 :  -0.1111-0.1111 0.2000  plane waves:    2754
 k-point 123 :   0.0000 0.0000 0.4000  plane waves:    2744
 k-point 124 :   0.1111 0.0000 0.4000  plane waves:    2763
 k-point 125 :   0.2222 0.0000 0.4000  plane waves:    2766
 k-point 126 :   0.3333 0.0000 0.4000  plane waves:    2745
 k-point 127 :   0.4444-0.0000 0.4000  plane waves:    2746
 k-point 128 :  -0.4444 0.0000 0.4000  plane waves:    2746
 k-point 129 :  -0.3333 0.0000 0.4000  plane waves:    2745
 k-point 130 :  -0.2222 0.0000 0.4000  plane waves:    2766
 k-point 131 :  -0.1111 0.0000 0.4000  plane waves:    2763
 k-point 132 :  -0.0000 0.1111 0.4000  plane waves:    2763
 k-point 133 :   0.1111 0.1111 0.4000  plane waves:    2757
 k-point 134 :   0.2222 0.1111 0.4000  plane waves:    2752
 k-point 135 :   0.3333 0.1111 0.4000  plane waves:    2744
 k-point 136 :   0.4444 0.1111 0.4000  plane waves:    2741
 k-point 137 :  -0.4444 0.1111 0.4000  plane waves:    2745
 k-point 138 :  -0.3333 0.1111 0.4000  plane waves:    2752
 k-point 139 :  -0.2222 0.1111 0.4000  plane waves:    2757
 k-point 140 :  -0.1111 0.1111 0.4000  plane waves:    2763
 k-point 141 :  -0.0000 0.2222 0.4000  plane waves:    2766
 k-point 142 :   0.1111 0.2222 0.4000  plane waves:    2752
 k-point 143 :   0.2222 0.2222 0.4000  plane waves:    2749
 k-point 144 :   0.3333 0.2222 0.4000  plane waves:    2727
 k-point 145 :   0.4444 0.2222 0.4000  plane waves:    2727
 k-point 146 :  -0.4444 0.2222 0.4000  plane waves:    2750
 k-point 147 :  -0.3333 0.2222 0.4000  plane waves:    2752
 k-point 148 :  -0.2222 0.2222 0.4000  plane waves:    2766
 k-point 149 :  -0.1111 0.2222 0.4000  plane waves:    2757
 k-point 150 :  -0.0000 0.3333 0.4000  plane waves:    2745
 k-point 151 :   0.1111 0.3333 0.4000  plane waves:    2744
 k-point 152 :   0.2222 0.3333 0.4000  plane waves:    2727
 k-point 153 :   0.3333 0.3333 0.4000  plane waves:    2728
 k-point 154 :   0.4444 0.3333 0.4000  plane waves:    2727
 k-point 155 :  -0.4444 0.3333 0.4000  plane waves:    2744
 k-point 156 :  -0.3333 0.3333 0.4000  plane waves:    2745
 k-point 157 :  -0.2222 0.3333 0.4000  plane waves:    2752
 k-point 158 :  -0.1111 0.3333 0.4000  plane waves:    2752
 k-point 159 :  -0.0000 0.4444 0.4000  plane waves:    2746
 k-point 160 :   0.1111 0.4444 0.4000  plane waves:    2740
 k-point 161 :   0.2222 0.4444 0.4000  plane waves:    2727
 k-point 162 :   0.3333 0.4444 0.4000  plane waves:    2727
 k-point 163 :   0.4444 0.4444 0.4000  plane waves:    2740
 k-point 164 :  -0.4444 0.4444 0.4000  plane waves:    2746
 k-point 165 :  -0.3333 0.4444 0.4000  plane waves:    2744
 k-point 166 :  -0.2222 0.4444 0.4000  plane waves:    2749
 k-point 167 :  -0.1111 0.4444 0.4000  plane waves:    2744
 k-point 168 :   0.0000-0.4444 0.4000  plane waves:    2746
 k-point 169 :   0.1111-0.4444 0.4000  plane waves:    2744
 k-point 170 :   0.2222-0.4444 0.4000  plane waves:    2749
 k-point 171 :   0.3333-0.4444 0.4000  plane waves:    2744
 k-point 172 :   0.4444-0.4444 0.4000  plane waves:    2746
 k-point 173 :  -0.4444-0.4444 0.4000  plane waves:    2741
 k-point 174 :  -0.3333-0.4444 0.4000  plane waves:    2727
 k-point 175 :  -0.2222-0.4444 0.4000  plane waves:    2727
 k-point 176 :  -0.1111-0.4444 0.4000  plane waves:    2740
 k-point 177 :   0.0000-0.3333 0.4000  plane waves:    2745
 k-point 178 :   0.1111-0.3333 0.4000  plane waves:    2752
 k-point 179 :   0.2222-0.3333 0.4000  plane waves:    2752
 k-point 180 :   0.3333-0.3333 0.4000  plane waves:    2745
 k-point 181 :   0.4444-0.3333 0.4000  plane waves:    2744
 k-point 182 :  -0.4444-0.3333 0.4000  plane waves:    2727
 k-point 183 :  -0.3333-0.3333 0.4000  plane waves:    2728
 k-point 184 :  -0.2222-0.3333 0.4000  plane waves:    2727
 k-point 185 :  -0.1111-0.3333 0.4000  plane waves:    2744
 k-point 186 :  -0.0000-0.2222 0.4000  plane waves:    2766
 k-point 187 :   0.1111-0.2222 0.4000  plane waves:    2757
 k-point 188 :   0.2222-0.2222 0.4000  plane waves:    2766
 k-point 189 :   0.3333-0.2222 0.4000  plane waves:    2752
 k-point 190 :   0.4444-0.2222 0.4000  plane waves:    2749
 k-point 191 :  -0.4444-0.2222 0.4000  plane waves:    2727
 k-point 192 :  -0.3333-0.2222 0.4000  plane waves:    2727
 k-point 193 :  -0.2222-0.2222 0.4000  plane waves:    2749
 k-point 194 :  -0.1111-0.2222 0.4000  plane waves:    2752
 k-point 195 :   0.0000-0.1111 0.4000  plane waves:    2763
 k-point 196 :   0.1111-0.1111 0.4000  plane waves:    2763
 k-point 197 :   0.2222-0.1111 0.4000  plane waves:    2757
 k-point 198 :   0.3333-0.1111 0.4000  plane waves:    2752
 k-point 199 :   0.4444-0.1111 0.4000  plane waves:    2745
[...]
      2     -14.3056      1.00000
      3     -14.0961      1.00000
      4     -14.0885      1.00000
      5      -7.1601      1.00000
      6      -6.6921      1.00000
      7      -3.7434      1.00000
      8      -3.6906      1.00000
      9      -3.6505      1.00000
     10      -3.6253      1.00000
     11      -3.5913      1.00000
     12      -3.5150      1.00000
     13      -3.5092      1.00000
     14      -3.3059      1.00000
     15      -3.2322      1.00000
     16      -3.1724      1.00000
     17      -1.7250      1.00000
     18      -1.2636      1.00000
     19       0.6788      1.00000
     20       0.9544      1.00000
     21       2.1306      1.00000
     22       2.4306      1.00000
     23       5.3954      0.00000
     24       6.5162      0.00000
     25       6.7884      0.00000
     26       7.3668      0.00000
     27       8.7630      0.00000
     28      10.1085      0.00000
     29      10.2626      0.00000
     30      11.1579      0.00000
     31      11.3915      0.00000
     32      12.1287      0.00000

 k-point   201 :      -0.3333   -0.1111    0.4000
  band No.  band energies     occupation 
      1     -32.7019      1.00000
      2     -14.2747      1.00000
      3     -14.1093      1.00000
      4     -14.0776      1.00000
      5      -7.3208      1.00000
      6      -6.7212      1.00000
      7      -3.7750      1.00000
      8      -3.7094      1.00000
      9      -3.6599      1.00000
     10      -3.6506      1.00000
     11      -3.5798      1.00000
     12      -3.5380      1.00000
     13      -3.5123      1.00000
     14      -3.3735      1.00000
     15      -3.3042      1.00000
     16      -3.1104      1.00000
     17      -1.5235      1.00000
     18      -0.9261      1.00000
     19       0.8159      1.00000
     20       1.0470      1.00000
     21       2.2093      1.00000
     22       2.6198      1.00000
     23       5.4885      0.00000
     24       6.4537      0.00000
     25       6.6137      0.00000
     26       7.5620      0.00000
     27       8.5928      0.00000
     28       9.1386      0.00000
     29      10.3550      0.00000
     30      10.6071      0.00000
     31      11.8714      0.00000
     32      12.1418      0.00000

 k-point   202 :      -0.2222   -0.1111    0.4000
  band No.  band energies     occupation 
      1     -32.7076      1.00000
      2     -14.1953      1.00000
      3     -14.1406      1.00000
      4     -14.0513      1.00000
      5      -7.6083      1.00000
      6      -6.9080      1.00000
      7      -3.8237      1.00000
      8      -3.7785      1.00000
      9      -3.7172      1.00000
     10      -3.6701      1.00000
     11      -3.6158      1.00000
     12      -3.5453      1.00000
     13      -3.4855      1.00000
     14      -3.3797      1.00000
     15      -3.3134      1.00000
     16      -3.2431      1.00000
     17      -0.5967      1.00000
     18      -0.5231      1.00000
     19       1.2631      1.00000
     20       1.3262      1.00000
     21       2.4789      1.00000
     22       2.6012      1.00000
     23       5.9092      0.00000
     24       6.4846      0.00000
     25       6.9985      0.00000
     26       7.5790      0.00000
     27       8.1595      0.00000
     28       8.5896      0.00000
     29       9.2330      0.00000
     30       9.6660      0.00000
     31      10.9216      0.00000
     32      11.4526      0.00000

 k-point   203 :      -0.1111   -0.1111    0.4000
  band No.  band energies     occupation 
      1     -32.7141      1.00000
      2     -14.1762      1.00000
      3     -14.1012      1.00000
      4     -14.0219      1.00000
      5      -7.8740      1.00000
      6      -7.1408      1.00000
      7      -3.8525      1.00000
      8      -3.8095      1.00000
      9      -3.7691      1.00000
     10      -3.7146      1.00000
     11      -3.6475      1.00000
     12      -3.5414      1.00000
     13      -3.4374      1.00000
     14      -3.4114      1.00000
     15      -3.3388      1.00000
     16      -3.2878      1.00000
     17      -0.4150      1.00000
     18       0.6401      1.00000
     19       1.7455      1.00000
     20       2.0804      1.00000
     21       2.3876      1.00000
     22       2.8791      1.00000
     23       6.0891      0.00000
     24       6.6534      0.00000
     25       7.2879      0.00000
     26       7.4603      0.00000
     27       7.9884      0.00000
     28       8.2385      0.00000
     29       8.6049      0.00000
     30       9.1831      0.00000
     31       9.8651      0.00000
     32      10.2526      0.00000


--------------------------------------------------------------------------------------------------------


 soft charge-density along one line, spin component           1
         0         1         2         3         4         5         6         7         8         9
 total charge-density along one line
 
 soft charge-density along one line, spin component           2
         0         1         2         3         4         5         6         7         8         9
 total charge-density along one line
 
 pseudopotential strength for first ion, spin component:           1
-10.675  -3.908  -0.000   0.000   0.000  -0.000   0.000   0.000
 -3.908  -1.138  -0.000  -0.000   0.000  -0.000  -0.000   0.000
 -0.000  -0.000 -15.416  -0.000  -0.000 -15.124  -0.000  -0.000
  0.000  -0.000  -0.000 -15.411   0.000  -0.000 -15.120   0.000
  0.000   0.000  -0.000   0.000 -15.415  -0.000   0.000 -15.124
 -0.000  -0.000 -15.124  -0.000  -0.000 -14.837  -0.000  -0.000
  0.000  -0.000  -0.000 -15.120   0.000  -0.000 -14.833   0.000
  0.000   0.000  -0.000   0.000 -15.124  -0.000   0.000 -14.837
 -0.000   0.000   0.000  -0.000  -0.000   0.000  -0.000  -0.000
 -0.000   0.000  -0.000  -0.000  -0.000  -0.000  -0.000  -0.000
  0.001   0.001  -0.000  -0.000   0.000  -0.000  -0.000   0.000
  0.000  -0.000  -0.000   0.000   0.000  -0.000   0.000   0.000
  0.000  -0.000   0.000   0.000   0.000   0.000   0.000   0.000
 -0.000   0.000   0.000  -0.000  -0.000   0.000  -0.000  -0.000
 -0.000   0.000  -0.000  -0.000  -0.000  -0.000  -0.000  -0.000
  0.002   0.002  -0.000  -0.000   0.000  -0.000  -0.000   0.000
  0.000  -0.000  -0.000   0.000   0.000  -0.000   0.000   0.000
  0.000  -0.000   0.000   0.000   0.000   0.000   0.000   0.000
 pseudopotential strength for first ion, spin component:           2
-10.675  -3.908  -0.000   0.000   0.000  -0.000   0.000   0.000
 -3.908  -1.138  -0.000  -0.000   0.000  -0.000  -0.000   0.000
 -0.000  -0.000 -15.416  -0.000  -0.000 -15.124  -0.000  -0.000
  0.000  -0.000  -0.000 -15.411   0.000  -0.000 -15.120   0.000
  0.000   0.000  -0.000   0.000 -15.415  -0.000   0.000 -15.124
 -0.000  -0.000 -15.124  -0.000  -0.000 -14.837  -0.000  -0.000
  0.000  -0.000  -0.000 -15.120   0.000  -0.000 -14.833   0.000
  0.000   0.000  -0.000   0.000 -15.124  -0.000   0.000 -14.837
 -0.000   0.000   0.000  -0.000  -0.000   0.000  -0.000  -0.000
 -0.000   0.000  -0.000  -0.000  -0.000  -0.000  -0.000  -0.000
  0.001   0.001  -0.000  -0.000   0.000  -0.000  -0.000   0.000
  0.000  -0.000  -0.000   0.000   0.000  -0.000   0.000   0.000
  0.000  -0.000   0.000   0.000   0.000   0.000   0.000   0.000
 -0.000   0.000   0.000  -0.000  -0.000   0.000  -0.000  -0.000
 -0.000   0.000  -0.000  -0.000  -0.000  -0.000  -0.000  -0.000
  0.002   0.002  -0.000  -0.000   0.000  -0.000  -0.000   0.000
  0.000  -0.000  -0.000   0.000   0.000  -0.000   0.000   0.000
  0.000  -0.000   0.000   0.000   0.000   0.000   0.000   0.000
 total augmentation occupancy for first ion, spin component:           1
  2.004   0.012  -0.005  -0.000   0.003   0.005   0.000  -0.003   0.000  -0.000  -0.008   0.000  -0.000  -0.000   0.000   0.003
  0.012   0.502   0.010  -0.000  -0.006  -0.009   0.000   0.005  -0.002  -0.006   0.024   0.004   0.004   0.001   0.003  -0.020
 -0.005   0.010   8.803  -0.040  -0.017  -7.504   0.037   0.015  -0.007   0.023   0.007   0.013  -0.012   0.004  -0.012  -0.004
 -0.000  -0.000  -0.040   9.309   0.024   0.037  -7.914  -0.022   0.013   0.035  -0.000  -0.021  -0.022  -0.007  -0.018   0.000
  0.003  -0.006  -0.017   0.024   8.859   0.015  -0.022  -7.556   0.012   0.013  -0.004  -0.023  -0.007  -0.006  -0.007   0.002
  0.005  -0.009  -7.504   0.037   0.015   8.251  -0.034  -0.014   0.007  -0.022  -0.007  -0.013   0.012  -0.004   0.012   0.004
  0.000   0.000   0.037  -7.914  -0.022  -0.034   8.566   0.021  -0.012  -0.034   0.000   0.020   0.021   0.006   0.018  -0.000
 -0.003   0.005   0.015  -0.022  -7.556  -0.014   0.021   8.298  -0.012  -0.013   0.004   0.023   0.007   0.006   0.007  -0.002
  0.000  -0.002  -0.007   0.013   0.012   0.007  -0.012  -0.012   2.670   0.005  -0.001  -1.586  -0.001  -1.395  -0.003   0.000
 -0.000  -0.006   0.023   0.035   0.013  -0.022  -0.034  -0.013   0.005   4.342  -0.009  -0.011  -1.568  -0.003  -2.314   0.005
 -0.008   0.024   0.007  -0.000  -0.004  -0.007   0.000   0.004  -0.001  -0.009   1.442   0.006   0.001   0.000   0.005  -0.754
  0.000   0.004   0.013  -0.021  -0.023  -0.013   0.020   0.023  -1.586  -0.011   0.006   4.381   0.005   0.837   0.006  -0.003
 -0.000   0.004  -0.012  -0.022  -0.007   0.012   0.021   0.007  -0.001  -1.568   0.001   0.005   2.668   0.000   0.828  -0.001
 -0.000   0.001   0.004  -0.007  -0.006  -0.004   0.006   0.006  -1.395  -0.003   0.000   0.837   0.000   0.730   0.002  -0.000
  0.000   0.003  -0.012  -0.018  -0.007   0.012   0.018   0.007  -0.003  -2.314   0.005   0.006   0.828   0.002   1.236  -0.003
  0.003  -0.020  -0.004   0.000   0.002   0.004  -0.000  -0.002   0.000   0.005  -0.754  -0.003  -0.001  -0.000  -0.003   0.395
 -0.000  -0.002  -0.007   0.011   0.012   0.007  -0.011  -0.012   0.838   0.006  -0.003  -2.335  -0.003  -0.443  -0.003   0.002
  0.000  -0.002   0.006   0.012   0.004  -0.006  -0.011  -0.004   0.000   0.827  -0.001  -0.003  -1.394  -0.000  -0.438   0.000
 total augmentation occupancy for first ion, spin component:           2
 -0.000  -0.000   0.000  -0.000  -0.000  -0.000   0.000   0.000  -0.000  -0.000   0.000   0.000   0.000   0.000   0.000  -0.000
 -0.000   0.000   0.000   0.000   0.000   0.000  -0.000  -0.000   0.000  -0.000  -0.000  -0.000   0.000  -0.000  -0.000   0.000
  0.000   0.000   0.000   0.000  -0.000  -0.000  -0.000   0.000  -0.000   0.000   0.000   0.000  -0.000   0.000  -0.000  -0.000
 -0.000   0.000   0.000   0.000  -0.000  -0.000  -0.000   0.000   0.000   0.000   0.000  -0.000  -0.000  -0.000  -0.000  -0.000
 -0.000   0.000  -0.000  -0.000   0.000   0.000   0.000  -0.000   0.000   0.000  -0.000  -0.000  -0.000  -0.000  -0.000   0.000
 -0.000   0.000  -0.000  -0.000   0.000   0.000  -0.000  -0.000   0.000  -0.000  -0.000  -0.000   0.000  -0.000   0.000   0.000
  0.000  -0.000  -0.000  -0.000   0.000  -0.000   0.000  -0.000  -0.000  -0.000  -0.000   0.000   0.000   0.000   0.000   0.000
  0.000  -0.000   0.000   0.000  -0.000  -0.000  -0.000   0.000  -0.000  -0.000   0.000   0.000   0.000   0.000   0.000  -0.000
 -0.000   0.000  -0.000   0.000   0.000   0.000  -0.000  -0.000   0.000   0.000  -0.000   0.000  -0.000  -0.000  -0.000   0.000
 -0.000  -0.000   0.000   0.000   0.000  -0.000  -0.000  -0.000   0.000   0.000  -0.000  -0.000   0.000  -0.000  -0.000   0.000
  0.000  -0.000   0.000   0.000  -0.000  -0.000  -0.000   0.000  -0.000  -0.000   0.000   0.000   0.000   0.000   0.000  -0.000
  0.000  -0.000   0.000  -0.000  -0.000  -0.000   0.000   0.000   0.000  -0.000   0.000   0.000   0.000  -0.000   0.000  -0.000
  0.000   0.000  -0.000  -0.000  -0.000   0.000   0.000   0.000  -0.000   0.000   0.000   0.000   0.000   0.000  -0.000  -0.000
  0.000  -0.000   0.000  -0.000  -0.000  -0.000   0.000   0.000  -0.000  -0.000   0.000  -0.000   0.000   0.000   0.000  -0.000
  0.000  -0.000  -0.000  -0.000  -0.000   0.000   0.000   0.000  -0.000  -0.000   0.000   0.000  -0.000   0.000   0.000  -0.000
 -0.000   0.000  -0.000  -0.000   0.000   0.000   0.000  -0.000   0.000   0.000  -0.000  -0.000  -0.000  -0.000  -0.000   0.000
 -0.000   0.000  -0.000   0.000   0.000   0.000  -0.000  -0.000  -0.000   0.000  -0.000  -0.000  -0.000   0.000  -0.000   0.000
 -0.000   0.000   0.000   0.000   0.000  -0.000  -0.000  -0.000   0.000  -0.000  -0.000  -0.000  -0.000  -0.000   0.000   0.000


------------------------ aborting loop because EDIFF is reached ----------------------------------------


 


 total charge     
 
# of ion       s       p       d       tot
------------------------------------------
    1        2.011   5.823   0.227   8.060
    2        0.535   0.490   9.776  10.801
    3        0.535   0.490   9.776  10.801
    4        1.003   1.548   0.000   2.551
    5        1.003   1.548   0.000   2.551
--------------------------------------------------
tot          5.086   9.899  19.778  34.763
 


 magnetization (x)
 
# of ion       s       p       d       tot
------------------------------------------
    1       -0.000   0.000   0.000   0.000
    2       -0.000  -0.000  -0.000  -0.000
    3       -0.000  -0.000  -0.000  -0.000
    4        0.000   0.000   0.000   0.000
    5        0.000   0.000   0.000   0.000
--------------------------------------------------
tot         -0.000   0.000  -0.000   0.000
 
    CHARGE:  cpu time    0.1198: real time    0.1201
    FORLOC:  cpu time    0.0005: real time    0.0005
    FORNL :  cpu time    0.2027: real time    0.2029
    STRESS:  cpu time   14.6612: real time   14.6840
    FORCOR:  cpu time    0.0186: real time    0.0191
    FORHAR:  cpu time    0.0018: real time    0.0021
    MIXING:  cpu time    0.0006: real time    0.0006
    OFIELD:  cpu time    0.0002: real time    0.0002

  FORCE on cell =-STRESS in cart. coord.  units (eV):
  Direction    XX          YY          ZZ          XY          YZ          ZX
  --------------------------------------------------------------------------------------
  Alpha Z   211.95168   211.95168   211.95168
  Ewald    -938.55998  -935.10801 -1121.40455     0.93738    -0.18411     0.10551
  Hartree   581.37201   582.95755   377.80536     0.42294    -0.17279     0.08420
  E(xc)    -232.09748  -232.09475  -232.20423     0.00060    -0.00139     0.00094
  Local     -75.72271   -80.64551   309.27147    -1.32857     0.36882    -0.19637
  n-local    -2.06874    -1.98877    -1.73141     0.02209     0.02148    -0.01112
  augment    76.79950    76.77694    76.89052    -0.00419    -0.00986     0.00537
  Kinetic   378.16584   378.02188   379.39914    -0.04487    -0.02365     0.01293
  Fock        0.00000     0.00000     0.00000     0.00000     0.00000     0.00000
  -------------------------------------------------------------------------------------
  Total      -0.15990    -0.12899    -0.02201     0.00538    -0.00149     0.00145
  in kB      -2.51147    -2.02604    -0.34569     0.08451    -0.02345     0.02284
  external pressure =       -1.63 kB  Pullay stress =        0.00 kB


 VOLUME and BASIS-vectors are now :
 -----------------------------------------------------------------------------
  energy-cutoff  :      520.00
  volume of cell :      102.01
      direct lattice vectors                 reciprocal lattice vectors
     4.072553951  0.000228161  0.000040058     0.245538222  0.141755654 -0.000004231
    -2.036079385  3.526739830  0.000025643    -0.000015885  0.283538822 -0.000003625
     0.000069940  0.000090809  7.101849559    -0.000001385 -0.000001823  0.140808390

  length of vectors
     4.072553957  4.072285979  7.101849560     0.283520165  0.283538822  0.140808390


 FORCES acting on ions
    electron-ion (+dipol)            ewald-force                    non-local-force                 convergence-correction
 -----------------------------------------------------------------------------------------------
   0.109E+00 -.186E+00 -.125E-02   -.104E+00 0.176E+00 0.133E-02   -.134E-01 0.234E-01 -.232E-03   0.516E-06 -.334E-05 -.102E-05
   -.803E-01 0.231E+00 -.195E+03   0.850E-01 -.235E+00 0.197E+03   -.369E-02 0.276E-02 -.218E+01   0.341E-05 -.205E-05 0.608E-03
   0.532E+00 -.104E+01 0.195E+03   -.527E+00 0.102E+01 -.197E+03   -.211E-01 0.414E-01 0.218E+01   -.691E-06 -.855E-05 -.600E-03
   -.540E+00 0.994E+00 0.144E+03   0.533E+00 -.985E+00 -.148E+03   0.366E-01 -.624E-01 0.294E+01   0.479E-06 0.357E-05 -.222E-03
   -.992E-02 -.254E-01 -.144E+03   0.130E-01 0.199E-01 0.148E+03   -.450E-02 0.815E-02 -.294E+01   -.618E-06 0.134E-05 0.221E-03
 -----------------------------------------------------------------------------------------------
   0.726E-02 -.136E-01 0.574E-03   -.328E-14 0.103E-13 0.000E+00   -.614E-02 0.133E-01 -.209E-02   0.309E-05 -.904E-05 0.563E-05
 
 
 POSITION                                       TOTAL-FORCE (eV/Angst)
 -----------------------------------------------------------------------------------
      2.03654      3.52706      7.10191        -0.008029      0.013358      0.000141
      0.00019      2.35130      4.47752         0.000444     -0.001207      0.008646
      2.03636      1.17575      2.62440        -0.021361      0.037913     -0.008009
     -0.00486      2.35992      1.96763         0.030764     -0.053230     -0.021211
      2.03640      1.17580      5.13428        -0.001819      0.003165      0.020433
 -----------------------------------------------------------------------------------
    total drift:                                0.001126     -0.000346     -0.001506


--------------------------------------------------------------------------------------------------------



  FREE ENERGIE OF THE ION-ELECTRON SYSTEM (eV)
  ---------------------------------------------------
  free  energy   TOTEN  =       -74.02853689 eV

  energy  without entropy=      -74.02853689  energy(sigma->0) =      -74.02853689
 


--------------------------------------------------------------------------------------------------------


    POTLOK:  cpu time    0.9693: real time    0.9703


--------------------------------------------------------------------------------------------------------


     LOOP+:  cpu time  191.0910: real time  191.6155
    4ORBIT:  cpu time    0.0000: real time    0.0000
 


 total charge     
 
# of ion       s       p       d       tot
------------------------------------------
    1        2.011   5.823   0.227   8.060
    2        0.535   0.490   9.776  10.801
    3        0.535   0.490   9.776  10.801
    4        1.003   1.548   0.000   2.551
    5        1.003   1.548   0.000   2.551
--------------------------------------------------
tot          5.086   9.899  19.778  34.763
 


 magnetization (x)
 
# of ion       s       p       d       tot
------------------------------------------
    1       -0.000   0.000   0.000   0.000
    2       -0.000  -0.000  -0.000  -0.000
    3       -0.000  -0.000  -0.000  -0.000
    4        0.000   0.000   0.000   0.000
    5        0.000   0.000   0.000   0.000
--------------------------------------------------
tot         -0.000   0.000  -0.000   0.000
 

 total amount of memory used by VASP MPI-rank0   104594. kBytes
=======================================================================

   base      :      30000. kBytes
   nonl-proj :      61794. kBytes
   fftplans  :        618. kBytes
   grid      :       2558. kBytes
   one-center:         62. kBytes
   wavefun   :       9562. kBytes
 
  
  
 General timing and accounting informations for this job:
 ========================================================
  
                  Total CPU time used (sec):      198.369
                            User time (sec):      192.893
                          System time (sec):        5.476
                         Elapsed time (sec):      199.244
  
                   Maximum memory used (kb):      164768.
                   Average memory used (kb):           0.
  
                          Minor page faults:        40259
                          Major page faults:            0
                 Voluntary context switches:          613
