10   
5    

1    
  0.0027513302409675  -0.0000000000144140   0.0096140616757507
  -0.0415310900   -0.0000000400   -0.3474752500
   0.0033119200    0.0000000200    0.0081972700
   0.0034243300   -0.0000001100    0.0116677700
   0.0034219800   -0.0000001700    0.0117084900
   0.0053566900   -0.0000004300    0.0156036700
   0.0054122800    0.0000005600    0.0155919200
   0.0070834100   -0.0000001900    0.1643186600
   0.0070551500   -0.0000001000    0.1496530800
   0.0032322200    0.0000001400   -0.0112622800
   0.0032331200    0.0000003300   -0.0180033300

3    
  0.0027513302409675  -0.0000000000144140   0.0096140616757507
   0.0007587700   -0.0000000500    0.0146591700
   0.0027045500   -0.0000000300    0.0187856000
  -0.0166132400   -0.0000001200   -0.1070633300
   0.0004009600   -0.0000001200    0.0168544600
   0.0004792100   -0.0000002400    0.0144066000
   0.0042106100    0.0000004100    0.0103313100
   0.0015251800   -0.0000002300    0.0213437600
   0.0003735600   -0.0000000100   -0.0164453200
   0.0005717900    0.0000001000   -0.0058170100
   0.0055886000    0.0000002900    0.0329447500

3    
 -0.0027513302409675   0.0000000000144140  -0.0096140616757507
  -0.0003906900   -0.0000000300   -0.0123324200
  -0.0022846500    0.0000000300   -0.0157722200
   0.0133540800   -0.0000001700    0.0882230200
  -0.0000463500   -0.0000001200   -0.0135880100
  -0.0001236700   -0.0000005100   -0.0116941700
  -0.0039580400    0.0000005100   -0.0077417600
  -0.0011659300   -0.0000001700   -0.0177045100
  -0.0000232600   -0.0000000200    0.0123759800
  -0.0002243600    0.0000001400    0.0150492500
  -0.0051371200    0.0000003300   -0.0368151500

7    
  0.0027513302409675  -0.0000000000144140   0.0096140616757507
   0.0039668300   -0.0000000400    0.1527828000
  -0.0000374000   -0.0000000000   -0.0137112000
   0.0009640400   -0.0000002300    0.0170202800
  -0.0002208300   -0.0000000600   -0.0154112000
  -0.0000269300   -0.0000003800   -0.0116567900
   0.0052750500    0.0000004600    0.0336297500
  -0.0084022100   -0.0000001600   -0.2165000600
  -0.0018141600   -0.0000000500    0.0155779400
  -0.0001730100    0.0000001700    0.0255676400
   0.0004686200    0.0000003000    0.0127008300

7    
 -0.0027513302409675   0.0000000000144140  -0.0096140616757507
  -0.0035921200   -0.0000000400   -0.1638438800
   0.0000420900    0.0000000100    0.0143225900
  -0.0009641600   -0.0000000000   -0.0169384500
   0.0002277200   -0.0000002300    0.0161262400
   0.0000323000   -0.0000002700    0.0118916300
  -0.0051824800    0.0000003500   -0.0331826200
   0.0078543100   -0.0000002000    0.2317115700
   0.0018658100   -0.0000000200   -0.0222135900
   0.0001725400    0.0000001200   -0.0186186400
  -0.0004560100    0.0000002900   -0.0192548500
