# Tetrahedron method
       -4.1104228421        0.0000000000
       -3.9607103918        0.0000000000
       -3.8109979416        0.0000000000
       -3.6612854913        0.0000000000
       -3.5115730410        0.0000000000
       -3.3618605908        0.0000000000
       -3.2121481405        0.0000000000
       -3.0624356903        0.0000000000
       -2.9127232400        0.0000000000
       -2.7630107898        0.0000000000
       -2.6132983395        0.0000000000
       -2.4635858892        0.0000000000
       -2.3138734390        0.0000000000
       -2.1641609887        0.0000000000
       -2.0144485385        0.0000000000
       -1.8647360882        0.0000000000
       -1.7150236379        0.0000000000
       -1.5653111877        0.0227513053
       -1.4155987374        0.0405312564
       -1.2658862872        0.0432223165
       -1.1161738369        0.0449655474
       -0.9664613867        0.0424058860
       -0.8167489364        0.0368299543
       -0.6670364861        0.0291731221
       -0.5173240359        0.0274229170
       -0.3676115856        0.0274302908
       -0.2178991354        0.0263199749
       -0.0681866851        0.0272577338
        0.0815257652        0.0283871294
        0.2312382154        0.0308810838
        0.3809506657        0.0335292610
        0.5306631159        0.0368838313
        0.6803755662        0.0454377846
        0.8300880164        0.0588654715
        0.9798004667        0.0766546502
        1.1295129170        0.0996382668
        1.2792253672        0.1268694224
        1.4289378175        0.1491653348
        1.5786502677        0.1808497716
        1.7283627180        0.2153190999
        1.8780751683        0.2544290210
        2.0277876185        0.2985378209
        2.1775000688        0.3491784825
        2.3272125190        0.4111903544
        2.4769249693        0.4975451890
        2.6266374195        0.6108404287
        2.7763498698        0.6596959045
        2.9260623201        0.7137831752
        3.0757747703        0.7724878869
        3.2254872206        0.8369635041
        3.3751996708        0.9034495507
        3.5249121211        0.9811479208
        3.6746245714        1.0632821747
        3.8243370216        1.1516455330
        3.9740494719        1.2572544437
        4.1237619221        1.3707518307
        4.2734743724        1.4999376833
        4.4231868226        1.6562271645
        4.5728992729        1.8378153515
        4.7226117232        2.0584909333
        4.8723241734        2.3547183145
        5.0220366237        2.7657189295
        5.1717490739        3.9015680817
        5.3214615242        4.7879245769
        5.4711739744        7.7146734600
        5.6208864247        7.5514236183
        5.7705988750        7.3886353804
        5.9203113252        9.6648028372
        6.0700237755        0.0000000000
        6.2197362257        0.0000000000
        6.3694486760       12.1374188635
        6.5191611263       13.3117074780
        6.6688735765        7.6184107073
        6.8185860268        6.5798800933
        6.9682984770        5.8880320269
        7.1180109273        7.5256190730
        7.2677233775        5.1577912463
        7.4174358278        4.3383139444
        7.5671482781        4.0269035729
        7.7168607283        1.9202960330
        7.8665731786        0.8365428209
        8.0162856288        0.8521998751
        8.1659980791        1.2369688476
        8.3157105294        4.0996575997
        8.4654229796        5.0393179677
        8.6151354299        0.0000000000
        8.7648478801        0.0000000000
        8.9145603304        0.0000000000
        9.0642727806       20.6080616329
        9.2139852309        5.8392451953
        9.3636976812        0.7539911311
        9.5134101314        0.0000000000
        9.6631225817        0.0000000000
        9.8128350319        0.0000000000
        9.9625474822        0.0000000000
       10.1122599325        0.0000000000
       10.2619723827        0.0000000000
       10.4116848330        0.0000000000
       10.5613972832        0.0000000000
       10.7111097335        0.0000000000
       10.8608221837        0.0000000000
       11.0105346340        0.0000000000
       11.1602470843        0.0000000000
       11.3099595345        0.0000000000
       11.4596719848        0.0000000000
       11.6093844350        0.0000000000
       11.7590968853        0.0000000000
       11.9088093356        0.0000000000
       12.0585217858        0.0000000000
       12.2082342361        0.0000000000
       12.3579466863        0.0000000000
       12.5076591366        0.0000000000
       12.6573715868        0.0000000000
       12.8070840371        0.0000000000
       12.9567964874        0.0000000000
       13.1065089376        0.0000000000
       13.2562213879        0.0000000000
       13.4059338381        0.0000000000
       13.5556462884        0.0000000000
       13.7053587387        0.0000000000
       13.8550711889        0.0000000000
       14.0047836392        0.0000000000
       14.1544960894        0.0000000000
       14.3042085397        0.0000000000
       14.4539209899        0.0000000000
       14.6036334402        0.0000000000
       14.7533458905        0.0000000000
       14.9030583407        0.0000000000
       15.0527707910        0.0000000000
       15.2024832412        0.0000000000
       15.3521956915        0.0000000000
       15.5019081418        0.0000000000
       15.6516205920        0.0000000000
       15.8013330423        0.0000000000
       15.9510454925        0.0000000000
       16.1007579428        0.0000000000
       16.2504703930        0.0000000000
       16.4001828433        0.0000000000
       16.5498952936        0.0000000000
       16.6996077438        0.0000000000
       16.8493201941        0.0000000000
       16.9990326443        0.0000000000
       17.1487450946        0.0000000000
       17.2984575449        0.0000000000
       17.4481699951        0.0000000000
       17.5978824454        0.0000000000
       17.7475948956        0.0000000000
       17.8973073459        0.0000000000
       18.0470197961        0.0000000000
       18.1967322464        0.0000000000
       18.3464446967        0.0000000000
       18.4961571469        0.0000000000
       18.6458695972        0.0000000000
       18.7955820474        0.0000000000
       18.9452944977        0.0000000000
       19.0950069480        0.0000000000
       19.2447193982        0.0000000000
       19.3944318485        0.0000000000
       19.5441442987        0.0000000000
       19.6938567490        0.0000000000
       19.8435691992        0.0000000000
       19.9932816495        0.0000000000
       20.1429940998        0.0000000000
       20.2927065500        0.2878810410
       20.4424190003        0.4362174062
       20.5921314505        0.6172821498
       20.7418439008        0.9041504899
       20.8915563511        2.1372459849
       21.0412688013        5.2280258648
       21.1909812516        2.5408488917
       21.3406937018        1.4339455464
       21.4904061521        1.3429080042
       21.6401186023        1.5136347102
       21.7898310526        2.9533671938
       21.9395435029        1.6138573577
       22.0892559531        1.0971550647
       22.2389684034        0.8010341319
       22.3886808536        0.6686119825
       22.5383933039        0.5431013229
       22.6881057542        0.4428891217
       22.8378182044        0.3560754739
       22.9875306547        0.2754672284
       23.1372431049        0.1937044459
       23.2869555552        0.0908693854
       23.4366680054        0.0000000000
       23.5863804557        0.0000000000
       23.7360929060        0.0000000000
       23.8858053562        0.0000000000
       24.0355178065        0.0000000000
       24.1852302567        0.0000000000
       24.3349427070        0.0000000000
       24.4846551572        0.0000000000
       24.6343676075        0.0000000000
       24.7840800578        0.0000000000
       24.9337925080        0.0000000000
       25.0835049583        0.0000000000
       25.2332174085        0.0000000000
       25.3829298588        0.0000000000
       25.5326423091        0.0000000000
       25.6823547593        0.0000000000
       25.8320672096        0.0000000000
